Title:  IV CURVE
Date: 02-13-2020 15:29:45
Plotname: transient analysis
Flags: real
No. Variables: 3       
No. Points: 10001   
Variables: 0 time time
 1 V(1,0) voltage
 2 V1.I current
Values:
0	0.000000000000000e+00
	0.000000000000000e+00
	0.000000000000000e+00
1	5.000000000000000e-12
	5.181876657024798e-08
	-1.744818123342975e-07
2	9.999999999999999e-12
	4.594376891916923e-08
	-3.495405623108083e-07
3	1.500000000000000e-11
	2.967039450182477e-08
	-5.247032960549818e-07
4	2.000000000000000e-11
	4.054016157768361e-08
	-6.995945983842233e-07
5	2.500000000000000e-11
	4.023713560010476e-08
	-8.745976286439990e-07
6	3.000000000000000e-11
	3.665625528275083e-08
	-1.049633437447173e-06
7	3.500000000000000e-11
	3.870814236341295e-08
	-1.224612918576366e-06
8	4.000000000000000e-11
	3.882646105880096e-08
	-1.399611735389412e-06
9	4.500000000000001e-11
	3.805521229435913e-08
	-1.574619447877057e-06
10	5.000000000000001e-11
	3.843408108691600e-08
	-1.749615659189131e-06
11	5.500000000000001e-11
	3.849406172553854e-08
	-1.924615059382745e-06
12	6.000000000000001e-11
	3.833114563053309e-08
	-2.099616688543695e-06
13	6.500000000000001e-11
	3.839936851211232e-08
	-2.274616006314879e-06
14	7.000000000000000e-11
	3.841872398444861e-08
	-2.449615812760156e-06
15	7.500000000000000e-11
	3.838502691339812e-08
	-2.624616149730866e-06
16	8.000000000000000e-11
	3.839704901279288e-08
	-2.799616029509872e-06
17	8.499999999999999e-11
	3.840251285378553e-08
	-2.974615974871463e-06
18	8.999999999999999e-11
	3.839581251762522e-08
	-3.149616041874823e-06
19	9.499999999999998e-11
	3.839801321911904e-08
	-3.324616019867809e-06
20	9.999999999999998e-11
	3.839958924059771e-08
	-3.499616004107593e-06
21	1.050000000000000e-10
	3.839846217070661e-08
	-3.674616015378293e-06
22	1.100000000000000e-10
	3.839904543046655e-08
	-3.849616009545695e-06
23	1.150000000000000e-10
	3.839965459896237e-08
	-4.024616003454009e-06
24	1.200000000000000e-10
	3.839968492172816e-08
	-4.199616003150782e-06
25	1.250000000000000e-10
	3.840004590535915e-08
	-4.374615999540946e-06
26	1.300000000000000e-10
	3.840045119712121e-08
	-4.549615995488028e-06
27	1.350000000000000e-10
	3.840074312214257e-08
	-4.724615992568778e-06
28	1.400000000000000e-10
	3.840110615740632e-08
	-4.899615988938427e-06
29	1.450000000000000e-10
	3.840149428051643e-08
	-5.074615985057196e-06
30	1.500000000000000e-10
	3.840186895196101e-08
	-5.249615981310482e-06
31	1.550000000000000e-10
	3.840226700598134e-08
	-5.424615977329942e-06
32	1.600000000000000e-10
	3.840268168542877e-08
	-5.599615973183148e-06
33	1.650000000000001e-10
	3.840310397382492e-08
	-5.774615968960264e-06
34	1.700000000000001e-10
	3.840354110921300e-08
	-5.949615964588910e-06
35	1.750000000000001e-10
	3.840399226289729e-08
	-6.124615960077373e-06
36	1.800000000000001e-10
	3.840445539358393e-08
	-6.299615955446067e-06
37	1.850000000000001e-10
	3.840493190054382e-08
	-6.474615950680999e-06
38	1.900000000000001e-10
	3.840542172850524e-08
	-6.649615945782719e-06
39	1.950000000000001e-10
	3.840592442800889e-08
	-6.824615940755723e-06
40	2.000000000000001e-10
	3.840644026563399e-08
	-6.999615935597348e-06
41	2.050000000000001e-10
	3.840696925412867e-08
	-7.174615930307463e-06
42	2.100000000000001e-10
	3.840751129767583e-08
	-7.349615924887028e-06
43	2.150000000000001e-10
	3.840806644713248e-08
	-7.524615919335536e-06
44	2.200000000000001e-10
	3.840863471101001e-08
	-7.699615913652896e-06
45	2.250000000000002e-10
	3.840921607038382e-08
	-7.874615907839303e-06
46	2.300000000000002e-10
	3.840981053593993e-08
	-8.049615901894649e-06
47	2.350000000000002e-10
	3.841041811178276e-08
	-8.224615895818889e-06
48	2.400000000000002e-10
	3.841103879546169e-08
	-8.399615889612051e-06
49	2.450000000000001e-10
	3.841167259044495e-08
	-8.574615883274103e-06
50	2.500000000000001e-10
	3.841231949931480e-08
	-8.749615876805011e-06
51	2.550000000000001e-10
	3.841297952316456e-08
	-8.924615870204774e-06
52	2.600000000000001e-10
	3.841365266428494e-08
	-9.099615863473362e-06
53	2.650000000000001e-10
	3.841433892491215e-08
	-9.274615856610754e-06
54	2.700000000000000e-10
	3.841503830696108e-08
	-9.449615849616933e-06
55	2.750000000000000e-10
	3.841575081262763e-08
	-9.624615842491875e-06
56	2.800000000000000e-10
	3.841647644413667e-08
	-9.799615835235562e-06
57	2.850000000000000e-10
	3.841721520367841e-08
	-9.974615827847965e-06
58	2.900000000000000e-10
	3.841796709352868e-08
	-1.014961582032907e-05
59	2.950000000000000e-10
	3.841873211600506e-08
	-1.032461581267884e-05
60	2.999999999999999e-10
	3.841951027345557e-08
	-1.049961580489726e-05
61	3.049999999999999e-10
	3.842030156826148e-08
	-1.067461579698432e-05
62	3.099999999999999e-10
	3.842110600285997e-08
	-1.084961578893997e-05
63	3.149999999999999e-10
	3.842192357971724e-08
	-1.102461578076420e-05
64	3.199999999999999e-10
	3.842275430135680e-08
	-1.119961577245698e-05
65	3.249999999999999e-10
	3.842359817032410e-08
	-1.137461576401829e-05
66	3.299999999999998e-10
	3.842445518920421e-08
	-1.154961575544810e-05
67	3.349999999999998e-10
	3.842532536064379e-08
	-1.172461574674639e-05
68	3.399999999999998e-10
	3.842620868731637e-08
	-1.189961573791312e-05
69	3.449999999999998e-10
	3.842710517193017e-08
	-1.207461572894827e-05
70	3.499999999999998e-10
	3.842801481725142e-08
	-1.224961571985182e-05
71	3.549999999999998e-10
	3.842893762606618e-08
	-1.242461571062373e-05
72	3.599999999999997e-10
	3.842987360122562e-08
	-1.259961570126398e-05
73	3.649999999999997e-10
	3.843082274560070e-08
	-1.277461569177254e-05
74	3.699999999999997e-10
	3.843178506211617e-08
	-1.294961568214937e-05
75	3.749999999999997e-10
	3.843276055371663e-08
	-1.312461567239445e-05
76	3.799999999999997e-10
	3.843374922342659e-08
	-1.329961566250775e-05
77	3.849999999999997e-10
	3.843475107428050e-08
	-1.347461565248925e-05
78	3.899999999999996e-10
	3.843576610935739e-08
	-1.364961564233889e-05
79	3.949999999999996e-10
	3.843679433178583e-08
	-1.382461563205667e-05
80	3.999999999999996e-10
	3.843783574473328e-08
	-1.399961562164254e-05
81	4.049999999999996e-10
	3.843889035140334e-08
	-1.417461561109647e-05
82	4.099999999999996e-10
	3.843995815504769e-08
	-1.434961560041844e-05
83	4.149999999999995e-10
	3.844103915895199e-08
	-1.452461558960840e-05
84	4.199999999999995e-10
	3.844213336644721e-08
	-1.469961557866632e-05
85	4.249999999999995e-10
	3.844324078090603e-08
	-1.487461556759218e-05
86	4.299999999999995e-10
	3.844436140574293e-08
	-1.504961555638593e-05
87	4.349999999999995e-10
	3.844549524440845e-08
	-1.522461554504754e-05
88	4.399999999999995e-10
	3.844664230040195e-08
	-1.539961553357698e-05
89	4.449999999999994e-10
	3.844780257725468e-08
	-1.557461552197421e-05
90	4.499999999999994e-10
	3.844897607855658e-08
	-1.574961551023920e-05
91	4.549999999999994e-10
	3.845016280791105e-08
	-1.592461549837190e-05
92	4.599999999999994e-10
	3.845136276898518e-08
	-1.609961548637229e-05
93	4.649999999999994e-10
	3.845257596548710e-08
	-1.627461547424032e-05
94	4.699999999999994e-10
	3.845380240115044e-08
	-1.644961546197597e-05
95	4.749999999999994e-10
	3.845504207977249e-08
	-1.662461544957918e-05
96	4.799999999999994e-10
	3.845629500516188e-08
	-1.679961543704993e-05
97	4.849999999999994e-10
	3.845756118120506e-08
	-1.697461542438816e-05
98	4.899999999999993e-10
	3.845884061180833e-08
	-1.714961541159386e-05
99	4.949999999999993e-10
	3.846013330091474e-08
	-1.732461539866697e-05
100	4.999999999999993e-10
	3.846143925252543e-08
	-1.749961538560745e-05
101	5.049999999999993e-10
	3.846275847066837e-08
	-1.767461537241527e-05
102	5.099999999999993e-10
	3.846409095942677e-08
	-1.784961535909038e-05
103	5.149999999999993e-10
	3.846543672291638e-08
	-1.802461534563274e-05
104	5.199999999999992e-10
	3.846679576529680e-08
	-1.819961533204232e-05
105	5.249999999999992e-10
	3.846816809077156e-08
	-1.837461531831906e-05
106	5.299999999999992e-10
	3.846955370358800e-08
	-1.854961530446294e-05
107	5.349999999999992e-10
	3.847095260801758e-08
	-1.872461529047389e-05
108	5.399999999999992e-10
	3.847236480840531e-08
	-1.889961527635189e-05
109	5.449999999999992e-10
	3.847379030911744e-08
	-1.907461526209688e-05
110	5.499999999999991e-10
	3.847522911455706e-08
	-1.924961524770882e-05
111	5.549999999999991e-10
	3.847668122917674e-08
	-1.942461523318768e-05
112	5.599999999999991e-10
	3.847814665748852e-08
	-1.959961521853339e-05
113	5.649999999999991e-10
	3.847962540402283e-08
	-1.977461520374593e-05
114	5.699999999999991e-10
	3.848111747334974e-08
	-1.994961518882524e-05
115	5.749999999999990e-10
	3.848262287011150e-08
	-2.012461517377127e-05
116	5.799999999999990e-10
	3.848414159894187e-08
	-2.029961515858397e-05
117	5.849999999999990e-10
	3.848567366458356e-08
	-2.047461514326332e-05
118	5.899999999999990e-10
	3.848721907176942e-08
	-2.064961512780925e-05
119	5.949999999999990e-10
	3.848877782528321e-08
	-2.082461511222171e-05
120	5.999999999999990e-10
	3.849034992996816e-08
	-2.099961509650066e-05
121	6.049999999999989e-10
	3.849193539071845e-08
	-2.117461508064605e-05
122	6.099999999999989e-10
	3.849353421240983e-08
	-2.134961506465784e-05
123	6.149999999999989e-10
	3.849514640004832e-08
	-2.152461504853596e-05
124	6.199999999999989e-10
	3.849677195862005e-08
	-2.169961503228038e-05
125	6.249999999999989e-10
	3.849841089315933e-08
	-2.187461501589103e-05
126	6.299999999999989e-10
	3.850006320876979e-08
	-2.204961499936787e-05
127	6.349999999999988e-10
	3.850172891059046e-08
	-2.222461498271086e-05
128	6.399999999999988e-10
	3.850340800378867e-08
	-2.239961496591992e-05
129	6.449999999999988e-10
	3.850510049357420e-08
	-2.257461494899502e-05
130	6.499999999999988e-10
	3.850680638520780e-08
	-2.274961493193611e-05
131	6.549999999999988e-10
	3.850852568402097e-08
	-2.292461491474312e-05
132	6.599999999999988e-10
	3.851025839533389e-08
	-2.309961489741600e-05
133	6.649999999999987e-10
	3.851200452453045e-08
	-2.327461487995471e-05
134	6.699999999999987e-10
	3.851376407707942e-08
	-2.344961486235919e-05
135	6.749999999999987e-10
	3.851553705841281e-08
	-2.362461484462937e-05
136	6.799999999999987e-10
	3.851732347407158e-08
	-2.379961482676521e-05
137	6.849999999999987e-10
	3.851912332963776e-08
	-2.397461480876666e-05
138	6.899999999999987e-10
	3.852093663066647e-08
	-2.414961479063365e-05
139	6.949999999999986e-10
	3.852276338285012e-08
	-2.432461477236612e-05
140	6.999999999999986e-10
	3.852460359186415e-08
	-2.449961475396404e-05
141	7.049999999999986e-10
	3.852645726344767e-08
	-2.467461473542732e-05
142	7.099999999999986e-10
	3.852832440336951e-08
	-2.484961471675592e-05
143	7.149999999999986e-10
	3.853020501746930e-08
	-2.502461469794978e-05
144	7.199999999999985e-10
	3.853209911160077e-08
	-2.519961467900883e-05
145	7.249999999999985e-10
	3.853400669167573e-08
	-2.537461465993303e-05
146	7.299999999999985e-10
	3.853592776365549e-08
	-2.554961464072231e-05
147	7.349999999999985e-10
	3.853786233352403e-08
	-2.572461462137662e-05
148	7.399999999999985e-10
	3.853981040732049e-08
	-2.589961460189588e-05
149	7.449999999999985e-10
	3.854177199114917e-08
	-2.607461458228003e-05
150	7.499999999999984e-10
	3.854374709111433e-08
	-2.624961456252904e-05
151	7.549999999999984e-10
	3.854573571340515e-08
	-2.642461454264281e-05
152	7.599999999999984e-10
	3.854773786422640e-08
	-2.659961452262130e-05
153	7.649999999999984e-10
	3.854975354984652e-08
	-2.677461450246444e-05
154	7.699999999999984e-10
	3.855178277657642e-08
	-2.694961448217218e-05
155	7.749999999999984e-10
	3.855382555073549e-08
	-2.712461446174444e-05
156	7.799999999999983e-10
	3.855588187874647e-08
	-2.729961444118115e-05
157	7.849999999999983e-10
	3.855795176704620e-08
	-2.747461442048227e-05
158	7.899999999999983e-10
	3.856003522207723e-08
	-2.764961439964772e-05
159	7.949999999999983e-10
	3.856213225040240e-08
	-2.782461437867744e-05
160	7.999999999999983e-10
	3.856424285860150e-08
	-2.799961435757136e-05
161	8.049999999999983e-10
	3.856636705325013e-08
	-2.817461433632941e-05
162	8.099999999999982e-10
	3.856850484101725e-08
	-2.834961431495153e-05
163	8.149999999999982e-10
	3.857065622862706e-08
	-2.852461429343765e-05
164	8.199999999999982e-10
	3.857282122282496e-08
	-2.869961427178771e-05
165	8.249999999999982e-10
	3.857499983036343e-08
	-2.887461425000163e-05
166	8.299999999999982e-10
	3.857719205813367e-08
	-2.904961422807935e-05
167	8.349999999999982e-10
	3.857939791299289e-08
	-2.922461420602080e-05
168	8.399999999999981e-10
	3.858161740185917e-08
	-2.939961418382592e-05
169	8.449999999999981e-10
	3.858385053173127e-08
	-2.957461416149462e-05
170	8.499999999999981e-10
	3.858609730959095e-08
	-2.974961413902684e-05
171	8.549999999999981e-10
	3.858835774252895e-08
	-2.992461411642251e-05
172	8.599999999999981e-10
	3.859063183764312e-08
	-3.009961409368155e-05
173	8.649999999999980e-10
	3.859291960208645e-08
	-3.027461407080391e-05
174	8.699999999999980e-10
	3.859522104305444e-08
	-3.044961404778951e-05
175	8.749999999999980e-10
	3.859753616779352e-08
	-3.062461402463825e-05
176	8.799999999999980e-10
	3.859986498358126e-08
	-3.079961400135010e-05
177	8.849999999999980e-10
	3.860220749777872e-08
	-3.097461397792496e-05
178	8.899999999999980e-10
	3.860456371773709e-08
	-3.114961395436275e-05
179	8.949999999999979e-10
	3.860693365087545e-08
	-3.132461393066343e-05
180	8.999999999999979e-10
	3.860931730471482e-08
	-3.149961390682689e-05
181	9.049999999999979e-10
	3.861171468671958e-08
	-3.167461388285307e-05
182	9.099999999999979e-10
	3.861412580445886e-08
	-3.184961385874188e-05
183	9.149999999999979e-10
	3.861655066556972e-08
	-3.202461383449328e-05
184	9.199999999999979e-10
	3.861898927768639e-08
	-3.219961381010716e-05
185	9.249999999999978e-10
	3.862144164849122e-08
	-3.237461378558344e-05
186	9.299999999999978e-10
	3.862390778576281e-08
	-3.254961376092207e-05
187	9.349999999999979e-10
	3.862638769729389e-08
	-3.272461373612295e-05
188	9.399999999999980e-10
	3.862888139087438e-08
	-3.289961371118603e-05
189	9.449999999999981e-10
	3.863138887444706e-08
	-3.307461368611119e-05
190	9.499999999999982e-10
	3.863391015591223e-08
	-3.324961366089838e-05
191	9.549999999999983e-10
	3.863644524324664e-08
	-3.342461363554751e-05
192	9.599999999999983e-10
	3.863899414448645e-08
	-3.359961361005850e-05
193	9.649999999999984e-10
	3.864155686769333e-08
	-3.377461358443128e-05
194	9.699999999999985e-10
	3.864413342097988e-08
	-3.394961355866574e-05
195	9.749999999999986e-10
	3.864672381252382e-08
	-3.412461353276183e-05
196	9.799999999999987e-10
	3.864932805052833e-08
	-3.429961350671945e-05
197	9.849999999999988e-10
	3.865194614325322e-08
	-3.447461348053853e-05
198	9.899999999999989e-10
	3.865457809897527e-08
	-3.464961345421897e-05
199	9.949999999999989e-10
	3.865722392610430e-08
	-3.482461342776071e-05
200	9.999999999999990e-10
	3.865988363298221e-08
	-3.499961340116365e-05
201	1.004999999999999e-09
	3.866255722808108e-08
	-3.517461337442769e-05
202	1.009999999999999e-09
	3.866524471988435e-08
	-3.534961334755278e-05
203	1.014999999999999e-09
	3.866794611694054e-08
	-3.552461332053881e-05
204	1.019999999999999e-09
	3.867066142781799e-08
	-3.569961329338570e-05
205	1.024999999999999e-09
	3.867339066117279e-08
	-3.587461326609337e-05
206	1.030000000000000e-09
	3.867613382568084e-08
	-3.604961323866173e-05
207	1.035000000000000e-09
	3.867889093006900e-08
	-3.622461321109070e-05
208	1.040000000000000e-09
	3.868166198309810e-08
	-3.639961318338016e-05
209	1.045000000000000e-09
	3.868444699363086e-08
	-3.657461315553006e-05
210	1.050000000000000e-09
	3.868724597050736e-08
	-3.674961312754030e-05
211	1.055000000000000e-09
	3.869005892267242e-08
	-3.692461309941078e-05
212	1.060000000000000e-09
	3.869288585907367e-08
	-3.709961307114142e-05
213	1.065000000000000e-09
	3.869572678872389e-08
	-3.727461304273213e-05
214	1.070000000000000e-09
	3.869858172071507e-08
	-3.744961301418280e-05
215	1.075000000000000e-09
	3.870145066413638e-08
	-3.762461298549338e-05
216	1.080000000000000e-09
	3.870433362817325e-08
	-3.779961295666374e-05
217	1.085000000000000e-09
	3.870723062199978e-08
	-3.797461292769381e-05
218	1.090000000000001e-09
	3.871014165492593e-08
	-3.814961289858348e-05
219	1.095000000000001e-09
	3.871306673619939e-08
	-3.832461286933266e-05
220	1.100000000000001e-09
	3.871600587520940e-08
	-3.849961283994128e-05
221	1.105000000000001e-09
	3.871895908137065e-08
	-3.867461281040922e-05
222	1.110000000000001e-09
	3.872192636411766e-08
	-3.884961278073640e-05
223	1.115000000000001e-09
	3.872490773293306e-08
	-3.902461275092271e-05
224	1.120000000000001e-09
	3.872790319742970e-08
	-3.919961272096807e-05
225	1.125000000000001e-09
	3.873091276713551e-08
	-3.937461269087237e-05
226	1.130000000000001e-09
	3.873393645174258e-08
	-3.954961266063553e-05
227	1.135000000000001e-09
	3.873697426096002e-08
	-3.972461263025744e-05
228	1.140000000000001e-09
	3.874002620447141e-08
	-3.989961259973801e-05
229	1.145000000000002e-09
	3.874309229215854e-08
	-4.007461256907714e-05
230	1.150000000000002e-09
	3.874617253380690e-08
	-4.024961253827473e-05
231	1.155000000000002e-09
	3.874926693934072e-08
	-4.042461250733067e-05
232	1.160000000000002e-09
	3.875237551872101e-08
	-4.059961247624489e-05
233	1.165000000000002e-09
	3.875549828188048e-08
	-4.077461244501725e-05
234	1.170000000000002e-09
	3.875863523892732e-08
	-4.094961241364769e-05
235	1.175000000000002e-09
	3.876178639995278e-08
	-4.112461238213608e-05
236	1.180000000000002e-09
	3.876495177506222e-08
	-4.129961235048233e-05
237	1.185000000000002e-09
	3.876813137447991e-08
	-4.147461231868635e-05
238	1.190000000000002e-09
	3.877132520846125e-08
	-4.164961228674800e-05
239	1.195000000000002e-09
	3.877453328728144e-08
	-4.182461225466722e-05
240	1.200000000000002e-09
	3.877775562130064e-08
	-4.199961222244387e-05
241	1.205000000000003e-09
	3.878099222092142e-08
	-4.217461219007788e-05
242	1.210000000000003e-09
	3.878424309658035e-08
	-4.234961215756913e-05
243	1.215000000000003e-09
	3.878750825874796e-08
	-4.252461212491752e-05
244	1.220000000000003e-09
	3.879078771804764e-08
	-4.269961209212293e-05
245	1.225000000000003e-09
	3.879408148500369e-08
	-4.287461205918527e-05
246	1.230000000000003e-09
	3.879738957032724e-08
	-4.304961202610440e-05
247	1.235000000000003e-09
	3.880071198467849e-08
	-4.322461199288026e-05
248	1.240000000000003e-09
	3.880404873885064e-08
	-4.339961195951272e-05
249	1.245000000000003e-09
	3.880739984360296e-08
	-4.357461192600168e-05
250	1.250000000000003e-09
	3.881076530983340e-08
	-4.374961189234703e-05
251	1.255000000000003e-09
	3.881414514844557e-08
	-4.392461185854864e-05
252	1.260000000000004e-09
	3.881753937035159e-08
	-4.409961182460643e-05
253	1.265000000000004e-09
	3.882094798662774e-08
	-4.427461179052027e-05
254	1.270000000000004e-09
	3.882437100830784e-08
	-4.444961175629006e-05
255	1.275000000000004e-09
	3.882780844648799e-08
	-4.462461172191567e-05
256	1.280000000000004e-09
	3.883126031238036e-08
	-4.479961168739702e-05
257	1.285000000000004e-09
	3.883472661717728e-08
	-4.497461165273398e-05
258	1.290000000000004e-09
	3.883820737215884e-08
	-4.514961161792642e-05
259	1.295000000000004e-09
	3.884170258863345e-08
	-4.532461158297427e-05
260	1.300000000000004e-09
	3.884521227798591e-08
	-4.549961154787738e-05
261	1.305000000000004e-09
	3.884873645164919e-08
	-4.567461151263564e-05
262	1.310000000000004e-09
	3.885227512111567e-08
	-4.584961147724895e-05
263	1.315000000000004e-09
	3.885582829792020e-08
	-4.602461144171718e-05
264	1.320000000000005e-09
	3.885939599361178e-08
	-4.619961140604023e-05
265	1.325000000000005e-09
	3.886297821986962e-08
	-4.637461137021797e-05
266	1.330000000000005e-09
	3.886657498839274e-08
	-4.654961133425028e-05
267	1.335000000000005e-09
	3.887018631088302e-08
	-4.672461129813706e-05
268	1.340000000000005e-09
	3.887381219919798e-08
	-4.689961126187819e-05
269	1.345000000000005e-09
	3.887745266514987e-08
	-4.707461122547353e-05
270	1.350000000000005e-09
	3.888110772063587e-08
	-4.724961118892298e-05
271	1.355000000000005e-09
	3.888477737767203e-08
	-4.742461115222641e-05
272	1.360000000000005e-09
	3.888846164823195e-08
	-4.759961111538370e-05
273	1.365000000000005e-09
	3.889216054438548e-08
	-4.777461107839475e-05
274	1.370000000000005e-09
	3.889587407826472e-08
	-4.794961104125941e-05
275	1.375000000000005e-09
	3.889960226204140e-08
	-4.812461100397758e-05
276	1.380000000000006e-09
	3.890334510794391e-08
	-4.829961096654912e-05
277	1.385000000000006e-09
	3.890710262827983e-08
	-4.847461092897392e-05
278	1.390000000000006e-09
	3.891087483533981e-08
	-4.864961089125185e-05
279	1.395000000000006e-09
	3.891466174156449e-08
	-4.882461085338279e-05
280	1.400000000000006e-09
	3.891846335939453e-08
	-4.899961081536662e-05
281	1.405000000000006e-09
	3.892227970131020e-08
	-4.917461077720321e-05
282	1.410000000000006e-09
	3.892611077988804e-08
	-4.934961073889243e-05
283	1.415000000000006e-09
	3.892995660774419e-08
	-4.952461070043415e-05
284	1.420000000000006e-09
	3.893381719753726e-08
	-4.969961066182826e-05
285	1.425000000000006e-09
	3.893769256199664e-08
	-4.987461062307461e-05
286	1.430000000000006e-09
	3.894158271389699e-08
	-5.004961058417309e-05
287	1.435000000000007e-09
	3.894548766606676e-08
	-5.022461054512358e-05
288	1.440000000000007e-09
	3.894940743141367e-08
	-5.039961050592593e-05
289	1.445000000000007e-09
	3.895334202288786e-08
	-5.057461046658002e-05
290	1.450000000000007e-09
	3.895729145345651e-08
	-5.074961042708571e-05
291	1.455000000000007e-09
	3.896125573620847e-08
	-5.092461038744288e-05
292	1.460000000000007e-09
	3.896523488426093e-08
	-5.109961034765140e-05
293	1.465000000000007e-09
	3.896922891075086e-08
	-5.127461030771115e-05
294	1.470000000000007e-09
	3.897323782893982e-08
	-5.144961026762197e-05
295	1.475000000000007e-09
	3.897726165210066e-08
	-5.162461022738375e-05
296	1.480000000000007e-09
	3.898130039355435e-08
	-5.179961018699632e-05
297	1.485000000000007e-09
	3.898535406672378e-08
	-5.197461014645960e-05
298	1.490000000000007e-09
	3.898942268506016e-08
	-5.214961010577342e-05
299	1.495000000000008e-09
	3.899350626204862e-08
	-5.232461006493765e-05
300	1.500000000000008e-09
	3.899760481129040e-08
	-5.249961002395216e-05
301	1.505000000000008e-09
	3.900171834638669e-08
	-5.267460998281680e-05
302	1.510000000000008e-09
	3.900584688103212e-08
	-5.284960994153148e-05
303	1.515000000000008e-09
	3.900999042896380e-08
	-5.302460990009600e-05
304	1.520000000000008e-09
	3.901414900396690e-08
	-5.319960985851025e-05
305	1.525000000000008e-09
	3.901832261992289e-08
	-5.337460981677410e-05
306	1.530000000000008e-09
	3.902251129070472e-08
	-5.354960977488739e-05
307	1.535000000000008e-09
	3.902671503031837e-08
	-5.372460973284999e-05
308	1.540000000000008e-09
	3.903093385279817e-08
	-5.389960969066177e-05
309	1.545000000000008e-09
	3.903516777221237e-08
	-5.407460964832259e-05
310	1.550000000000009e-09
	3.903941680271134e-08
	-5.424960960583227e-05
311	1.555000000000009e-09
	3.904368095849354e-08
	-5.442460956319073e-05
312	1.560000000000009e-09
	3.904796025383106e-08
	-5.459960952039778e-05
313	1.565000000000009e-09
	3.905225470305259e-08
	-5.477460947745328e-05
314	1.570000000000009e-09
	3.905656432052927e-08
	-5.494960943435711e-05
315	1.575000000000009e-09
	3.906088912069735e-08
	-5.512460939110911e-05
316	1.580000000000009e-09
	3.906522911808084e-08
	-5.529960934770915e-05
317	1.585000000000009e-09
	3.906958432720657e-08
	-5.547460930415705e-05
318	1.590000000000009e-09
	3.907395476273158e-08
	-5.564960926045271e-05
319	1.595000000000009e-09
	3.907834043930442e-08
	-5.582460921659595e-05
320	1.600000000000009e-09
	3.908274137166989e-08
	-5.599960917258663e-05
321	1.605000000000009e-09
	3.908715757462939e-08
	-5.617460912842459e-05
322	1.610000000000010e-09
	3.909158906302677e-08
	-5.634960908410971e-05
323	1.615000000000010e-09
	3.909603585182762e-08
	-5.652460903964183e-05
324	1.620000000000010e-09
	3.910049795597206e-08
	-5.669960899502079e-05
325	1.625000000000010e-09
	3.910497539049077e-08
	-5.687460895024645e-05
326	1.630000000000010e-09
	3.910946817051632e-08
	-5.704960890531865e-05
327	1.635000000000010e-09
	3.911397631120679e-08
	-5.722460886023726e-05
328	1.640000000000010e-09
	3.911849982775988e-08
	-5.739960881500207e-05
329	1.645000000000010e-09
	3.912303873548368e-08
	-5.757460876961301e-05
330	1.650000000000010e-09
	3.912759304971739e-08
	-5.774960872406987e-05
331	1.655000000000010e-09
	3.913216278586536e-08
	-5.792460867837251e-05
332	1.660000000000010e-09
	3.913674795938288e-08
	-5.809960863252078e-05
333	1.665000000000010e-09
	3.914134858582995e-08
	-5.827460858651451e-05
334	1.670000000000011e-09
	3.914596468078640e-08
	-5.844960854035357e-05
335	1.675000000000011e-09
	3.915059625990000e-08
	-5.862460849403779e-05
336	1.680000000000011e-09
	3.915524333888645e-08
	-5.879960844756699e-05
337	1.685000000000011e-09
	3.915990593353788e-08
	-5.897460840094105e-05
338	1.690000000000011e-09
	3.916458405967472e-08
	-5.914960835415979e-05
339	1.695000000000011e-09
	3.916927773321932e-08
	-5.932460830722306e-05
340	1.700000000000011e-09
	3.917398697014494e-08
	-5.949960826013070e-05
341	1.705000000000011e-09
	3.917871178647019e-08
	-5.967460821288254e-05
342	1.710000000000011e-09
	3.918345219827024e-08
	-5.984960816547842e-05
343	1.715000000000011e-09
	3.918820822174202e-08
	-6.002460811791818e-05
344	1.720000000000011e-09
	3.919297987307109e-08
	-6.019960807020167e-05
345	1.725000000000012e-09
	3.919776716856760e-08
	-6.037460802232873e-05
346	1.730000000000012e-09
	3.920257012455867e-08
	-6.054960797429917e-05
347	1.735000000000012e-09
	3.920738875745915e-08
	-6.072460792611284e-05
348	1.740000000000012e-09
	3.921222308377168e-08
	-6.089960787776959e-05
349	1.745000000000012e-09
	3.921707312000171e-08
	-6.107460782926921e-05
350	1.750000000000012e-09
	3.922193888276223e-08
	-6.124960778061160e-05
351	1.755000000000012e-09
	3.922682038874835e-08
	-6.142460773179655e-05
352	1.760000000000012e-09
	3.923171765467217e-08
	-6.159960768282388e-05
353	1.765000000000012e-09
	3.923663069734200e-08
	-6.177460763369345e-05
354	1.770000000000012e-09
	3.924155953356617e-08
	-6.194960758440510e-05
355	1.775000000000012e-09
	3.924650418042476e-08
	-6.212460753495865e-05
356	1.780000000000012e-09
	3.925146465472041e-08
	-6.229960748535390e-05
357	1.785000000000013e-09
	3.925644097362944e-08
	-6.247460743559072e-05
358	1.790000000000013e-09
	3.926143315431120e-08
	-6.264960738566890e-05
359	1.795000000000013e-09
	3.926644121385705e-08
	-6.282460733558832e-05
360	1.800000000000013e-09
	3.927146516957919e-08
	-6.299960728534878e-05
361	1.805000000000013e-09
	3.927650503881808e-08
	-6.317460723495007e-05
362	1.810000000000013e-09
	3.928156083891424e-08
	-6.334960718439207e-05
363	1.815000000000013e-09
	3.928663258737231e-08
	-6.352460713367459e-05
364	1.820000000000013e-09
	3.929172030171395e-08
	-6.369960708279745e-05
365	1.825000000000013e-09
	3.929682399950042e-08
	-6.387460703176048e-05
366	1.830000000000013e-09
	3.930194369845153e-08
	-6.404960698056350e-05
367	1.835000000000013e-09
	3.930707941622479e-08
	-6.422460692920632e-05
368	1.840000000000013e-09
	3.931223117067586e-08
	-6.439960687768877e-05
369	1.845000000000014e-09
	3.931739897959813e-08
	-6.457460682601069e-05
370	1.850000000000014e-09
	3.932258286100013e-08
	-6.474960677417188e-05
371	1.855000000000014e-09
	3.932778283283375e-08
	-6.492460672217217e-05
372	1.860000000000014e-09
	3.933299891315279e-08
	-6.509960667001137e-05
373	1.865000000000014e-09
	3.933823112014695e-08
	-6.527460661768929e-05
374	1.870000000000014e-09
	3.934347947198891e-08
	-6.544960656520574e-05
375	1.875000000000013e-09
	3.934874398695327e-08
	-6.562460651256059e-05
376	1.880000000000013e-09
	3.935402468341086e-08
	-6.579960645975364e-05
377	1.885000000000013e-09
	3.935932157970989e-08
	-6.597460640678465e-05
378	1.890000000000013e-09
	3.936463469439102e-08
	-6.614960635365353e-05
379	1.895000000000013e-09
	3.936996404594965e-08
	-6.632460630036000e-05
380	1.900000000000013e-09
	3.937530965308498e-08
	-6.649960624690392e-05
381	1.905000000000013e-09
	3.938067153443956e-08
	-6.667460619328511e-05
382	1.910000000000013e-09
	3.938604970877488e-08
	-6.684960613950336e-05
383	1.915000000000013e-09
	3.939144419490901e-08
	-6.702460608555850e-05
384	1.920000000000012e-09
	3.939685501177326e-08
	-6.719960603145033e-05
385	1.925000000000012e-09
	3.940228217833857e-08
	-6.737460597717864e-05
386	1.930000000000012e-09
	3.940772571362681e-08
	-6.754960592274329e-05
387	1.935000000000012e-09
	3.941318563678442e-08
	-6.772460586814406e-05
388	1.940000000000012e-09
	3.941866196697482e-08
	-6.789960581338075e-05
389	1.945000000000012e-09
	3.942415472346899e-08
	-6.807460575845318e-05
390	1.950000000000012e-09
	3.942966392557188e-08
	-6.824960570336114e-05
391	1.955000000000012e-09
	3.943518959271299e-08
	-6.842460564810447e-05
392	1.960000000000011e-09
	3.944073174436144e-08
	-6.859960559268295e-05
393	1.965000000000011e-09
	3.944629040007127e-08
	-6.877460553709641e-05
394	1.970000000000011e-09
	3.945186557942484e-08
	-6.894960548134461e-05
395	1.975000000000011e-09
	3.945745730216302e-08
	-6.912460542542737e-05
396	1.980000000000011e-09
	3.946306558801535e-08
	-6.929960536934450e-05
397	1.985000000000011e-09
	3.946869045684724e-08
	-6.947460531309581e-05
398	1.990000000000011e-09
	3.947433192855808e-08
	-6.964960525668109e-05
399	1.995000000000011e-09
	3.947999002312652e-08
	-6.982460520010013e-05
400	2.000000000000010e-09
	3.948566476061044e-08
	-6.999960514335275e-05
401	2.005000000000010e-09
	3.949135616116965e-08
	-7.017460508643875e-05
402	2.010000000000010e-09
	3.949706424499792e-08
	-7.034960502935790e-05
403	2.015000000000010e-09
	3.950278903234563e-08
	-7.052460497211004e-05
404	2.020000000000010e-09
	3.950853054361036e-08
	-7.069960491469491e-05
405	2.025000000000010e-09
	3.951428879924063e-08
	-7.087460485711235e-05
406	2.030000000000010e-09
	3.952006381965667e-08
	-7.104960479936215e-05
407	2.035000000000010e-09
	3.952585562555610e-08
	-7.122460474144409e-05
408	2.040000000000009e-09
	3.953166423752896e-08
	-7.139960468335798e-05
409	2.045000000000009e-09
	3.953748967627856e-08