Title: ***** SPLITER GATE ******
Date: 04-10-2021 23:41:02
Plotname: transient analysis
Flags: real
No. Variables: 6       
No. Points: 6001    
Variables: 0 time time
 1 V(1,0) voltage
 2 V(2,0) voltage
 3 V(3,0) voltage
 4 V(14,0) voltage
 5 V(15,0) voltage
Values:
0	0.000000000000000e+00
	0.000000000000000e+00
	0.000000000000000e+00
	0.000000000000000e+00
	0.000000000000000e+00
	0.000000000000000e+00
1	1.000000000000000e-13
	0.000000000000000e+00
	0.000000000000000e+00
	0.000000000000000e+00
	2.544091352115464e-06
	2.544091352115464e-06
2	2.000000000000000e-13
	0.000000000000000e+00
	0.000000000000000e+00
	0.000000000000000e+00
	8.309170256138895e-06
	8.309170256138895e-06
3	3.000000000000000e-13
	0.000000000000000e+00
	0.000000000000000e+00
	0.000000000000000e+00
	1.827901184585940e-05
	1.827901184585940e-05
4	4.000000000000000e-13
	0.000000000000000e+00
	0.000000000000000e+00
	0.000000000000000e+00
	2.944582999661863e-05
	2.944582999661863e-05
5	5.000000000000000e-13
	0.000000000000000e+00
	0.000000000000000e+00
	0.000000000000000e+00
	4.030890962643529e-05
	4.030890962643529e-05
6	6.000000000000000e-13
	0.000000000000000e+00
	0.000000000000000e+00
	0.000000000000000e+00
	4.957871255309134e-05
	4.957871255309134e-05
7	6.999999999999999e-13
	0.000000000000000e+00
	0.000000000000000e+00
	0.000000000000000e+00
	5.635016163132221e-05
	5.635016163132221e-05
8	7.999999999999999e-13
	0.000000000000000e+00
	0.000000000000000e+00
	0.000000000000000e+00
	6.015771170052227e-05
	6.015771170052227e-05
9	8.999999999999999e-13
	0.000000000000000e+00
	0.000000000000000e+00
	0.000000000000000e+00
	6.096960521093303e-05
	6.096960521093303e-05
10	1.000000000000000e-12
	0.000000000000000e+00
	0.000000000000000e+00
	0.000000000000000e+00
	5.912870276348307e-05
	5.912870276348307e-05
11	1.100000000000000e-12
	0.000000000000000e+00
	0.000000000000000e+00
	0.000000000000000e+00
	5.525497601606819e-05
	5.525497601606819e-05
12	1.200000000000000e-12
	0.000000000000000e+00
	0.000000000000000e+00
	0.000000000000000e+00
	5.012768636846512e-05
	5.012768636846512e-05
13	1.300000000000000e-12
	0.000000000000000e+00
	0.000000000000000e+00
	0.000000000000000e+00
	4.456534152714777e-05
	4.456534152714777e-05
14	1.400000000000000e-12
	0.000000000000000e+00
	0.000000000000000e+00
	0.000000000000000e+00
	3.931899167182725e-05
	3.931899167182725e-05
15	1.500000000000000e-12
	0.000000000000000e+00
	0.000000000000000e+00
	0.000000000000000e+00
	3.499014915558773e-05
	3.499014915558773e-05
16	1.600000000000000e-12
	0.000000000000000e+00
	0.000000000000000e+00
	0.000000000000000e+00
	3.197961106880612e-05
	3.197961106880612e-05
17	1.700000000000000e-12
	0.000000000000000e+00
	0.000000000000000e+00
	0.000000000000000e+00
	3.046860716464386e-05
	3.046860716464386e-05
18	1.800000000000000e-12
	0.000000000000000e+00
	0.000000000000000e+00
	0.000000000000000e+00
	3.042956624477909e-05
	3.042956624477909e-05
19	1.900000000000000e-12
	0.000000000000000e+00
	0.000000000000000e+00
	0.000000000000000e+00
	3.166069667535950e-05
	3.166069667535950e-05
20	2.000000000000000e-12
	0.000000000000000e+00
	0.000000000000000e+00
	0.000000000000000e+00
	3.383663248493739e-05
	3.383663248493739e-05
21	2.100000000000000e-12
	0.000000000000000e+00
	0.000000000000000e+00
	0.000000000000000e+00
	3.656661711780909e-05
	3.656661711780909e-05
22	2.200000000000000e-12
	0.000000000000000e+00
	0.000000000000000e+00
	0.000000000000000e+00
	3.945201010303335e-05
	3.945201010303335e-05
23	2.300000000000000e-12
	0.000000000000000e+00
	0.000000000000000e+00
	0.000000000000000e+00
	4.213614874886713e-05
	4.213614874886713e-05
24	2.400000000000000e-12
	0.000000000000000e+00
	0.000000000000000e+00
	0.000000000000000e+00
	4.434153192099587e-05
	4.434153192099587e-05
25	2.500000000000000e-12
	0.000000000000000e+00
	0.000000000000000e+00
	0.000000000000000e+00
	4.589160350488096e-05
	4.589160350488096e-05
26	2.600000000000000e-12
	0.000000000000000e+00
	0.000000000000000e+00
	0.000000000000000e+00
	4.671675928180054e-05
	4.671675928180054e-05
27	2.700000000000000e-12
	0.000000000000000e+00
	0.000000000000000e+00
	0.000000000000000e+00
	4.684626523753071e-05
	4.684626523753071e-05
28	2.800000000000000e-12
	0.000000000000000e+00
	0.000000000000000e+00
	0.000000000000000e+00
	4.638931194324254e-05
	4.638931194324254e-05
29	2.900000000000000e-12
	0.000000000000000e+00
	0.000000000000000e+00
	0.000000000000000e+00
	4.550930043588221e-05
	4.550930043588221e-05
30	3.000000000000000e-12
	0.000000000000000e+00
	0.000000000000000e+00
	0.000000000000000e+00
	4.439564278926947e-05
	4.439564278926947e-05
31	3.100000000000000e-12
	0.000000000000000e+00
	0.000000000000000e+00
	0.000000000000000e+00
	4.323695589726051e-05
	4.323695589726051e-05
32	3.200000000000000e-12
	0.000000000000000e+00
	0.000000000000000e+00
	0.000000000000000e+00
	4.219869369638253e-05
	4.219869369638253e-05
33	3.300000000000000e-12
	0.000000000000000e+00
	0.000000000000000e+00
	0.000000000000000e+00
	4.140719453835806e-05
	4.140719453835806e-05
34	3.400000000000000e-12
	0.000000000000000e+00
	0.000000000000000e+00
	0.000000000000000e+00
	4.094100060349735e-05
	4.094100060349735e-05
35	3.500000000000000e-12
	0.000000000000000e+00
	0.000000000000000e+00
	0.000000000000000e+00
	4.082928393345042e-05
	4.082928393345042e-05
36	3.600000000000000e-12
	0.000000000000000e+00
	0.000000000000000e+00
	0.000000000000000e+00
	4.105639196683394e-05
	4.105639196683394e-05
37	3.700000000000000e-12
	0.000000000000000e+00
	0.000000000000000e+00
	0.000000000000000e+00
	4.157096228442578e-05
	4.157096228442578e-05
38	3.800000000000000e-12
	0.000000000000000e+00
	0.000000000000000e+00
	0.000000000000000e+00
	4.229777017689497e-05
	4.229777017689497e-05
39	3.900000000000000e-12
	0.000000000000000e+00
	0.000000000000000e+00
	0.000000000000000e+00
	4.315044993439077e-05
	4.315044993439077e-05
40	4.000000000000000e-12
	0.000000000000000e+00
	0.000000000000000e+00
	0.000000000000000e+00
	4.404343216484271e-05
	4.404343216484271e-05
41	4.100000000000000e-12
	0.000000000000000e+00
	0.000000000000000e+00
	0.000000000000000e+00
	4.490180690037010e-05
	4.490180690037010e-05
42	4.200000000000000e-12
	0.000000000000000e+00
	0.000000000000000e+00
	0.000000000000000e+00
	4.566828649043147e-05
	4.566828649043147e-05
43	4.300000000000000e-12
	0.000000000000000e+00
	0.000000000000000e+00
	0.000000000000000e+00
	4.630693161848367e-05
	4.630693161848367e-05
44	4.400000000000000e-12
	0.000000000000000e+00
	0.000000000000000e+00
	0.000000000000000e+00
	4.680375317464307e-05
	4.680375317464307e-05
45	4.500000000000000e-12
	0.000000000000000e+00
	0.000000000000000e+00
	0.000000000000000e+00
	4.716466168477927e-05
	4.716466168477927e-05
46	4.600000000000000e-12
	0.000000000000000e+00
	0.000000000000000e+00
	0.000000000000000e+00
	4.741147382280601e-05
	4.741147382280601e-05
47	4.700000000000000e-12
	0.000000000000000e+00
	0.000000000000000e+00
	0.000000000000000e+00
	4.757679285472736e-05
	4.757679285472737e-05
48	4.800000000000000e-12
	0.000000000000000e+00
	0.000000000000000e+00
	0.000000000000000e+00
	4.769856658897350e-05
	4.769856658897353e-05
49	4.900000000000000e-12
	0.000000000000000e+00
	0.000000000000000e+00
	0.000000000000000e+00
	4.781501683682726e-05
	4.781501683682731e-05
50	5.000000000000000e-12
	0.000000000000000e+00
	0.000000000000000e+00
	0.000000000000000e+00
	4.796046091467491e-05
	4.796046091467497e-05
51	5.100000000000000e-12
	0.000000000000000e+00
	0.000000000000000e+00
	0.000000000000000e+00
	4.561825122908732e-05
	4.561825122908737e-05
52	5.200000000000000e-12
	0.000000000000000e+00
	0.000000000000000e+00
	0.000000000000000e+00
	3.895124400910783e-05
	3.895124400910788e-05
53	5.300000000000000e-12
	0.000000000000000e+00
	0.000000000000000e+00
	0.000000000000000e+00
	2.934847812073243e-05
	2.934847812073248e-05
54	5.400000000000000e-12
	0.000000000000000e+00
	0.000000000000000e+00
	0.000000000000000e+00
	1.820158080906779e-05
	1.820158080906782e-05
55	5.500000000000000e-12
	0.000000000000000e+00
	0.000000000000000e+00
	0.000000000000000e+00
	6.840493702053122e-06
	6.840493702053120e-06
56	5.600000000000000e-12
	0.000000000000000e+00
	0.000000000000000e+00
	0.000000000000000e+00
	-3.584704594544058e-06
	-3.584704594544063e-06
57	5.700000000000000e-12
	0.000000000000000e+00
	0.000000000000000e+00
	0.000000000000000e+00
	-1.218250948143044e-05
	-1.218250948143047e-05
58	5.800000000000000e-12
	0.000000000000000e+00
	0.000000000000000e+00
	0.000000000000000e+00
	-1.836373758311410e-05
	-1.836373758311415e-05
59	5.899999999999999e-12
	0.000000000000000e+00
	0.000000000000000e+00
	0.000000000000000e+00
	-2.185355787950850e-05
	-2.185355787950853e-05
60	5.999999999999999e-12
	0.000000000000000e+00
	0.000000000000000e+00
	0.000000000000000e+00
	-2.267545270716296e-05
	-2.267545270716295e-05
61	6.099999999999999e-12
	0.000000000000000e+00
	0.000000000000000e+00
	0.000000000000000e+00
	-2.111114057852546e-05
	-2.111114057852542e-05
62	6.199999999999999e-12
	0.000000000000000e+00
	0.000000000000000e+00
	0.000000000000000e+00
	-1.764146158744417e-05
	-1.764146158744411e-05
63	6.299999999999999e-12
	0.000000000000000e+00
	0.000000000000000e+00
	0.000000000000000e+00
	-1.287462919690948e-05
	-1.287462919690942e-05
64	6.399999999999999e-12
	0.000000000000000e+00
	0.000000000000000e+00
	0.000000000000000e+00
	-7.469525995443235e-06
	-7.469525995443172e-06
65	6.499999999999999e-12
	0.000000000000000e+00
	0.000000000000000e+00
	0.000000000000000e+00
	-2.062244097573963e-06
	-2.062244097573913e-06
66	6.599999999999999e-12
	0.000000000000000e+00
	0.000000000000000e+00
	0.000000000000000e+00
	2.796539412542334e-06
	2.796539412542370e-06
67	6.699999999999999e-12
	0.000000000000000e+00
	0.000000000000000e+00
	0.000000000000000e+00
	6.687514033720068e-06
	6.687514033720077e-06
68	6.799999999999999e-12
	0.000000000000000e+00
	0.000000000000000e+00
	0.000000000000000e+00
	9.348739512169631e-06
	9.348739512169614e-06
69	6.899999999999999e-12
	0.000000000000000e+00
	0.000000000000000e+00
	0.000000000000000e+00
	1.068127310459190e-05
	1.068127310459189e-05
70	6.999999999999999e-12
	0.000000000000000e+00
	0.000000000000000e+00
	0.000000000000000e+00
	1.073657656411030e-05
	1.073657656411030e-05
71	7.099999999999999e-12
	0.000000000000000e+00
	0.000000000000000e+00
	0.000000000000000e+00
	9.689767388471076e-06
	9.689767388471088e-06
72	7.199999999999999e-12
	0.000000000000000e+00
	0.000000000000000e+00
	0.000000000000000e+00
	7.803808767562121e-06
	7.803808767562146e-06
73	7.300000000000000e-12
	0.000000000000000e+00
	0.000000000000000e+00
	0.000000000000000e+00
	5.389899663270700e-06
	5.389899663270713e-06
74	7.400000000000000e-12
	0.000000000000000e+00
	0.000000000000000e+00
	0.000000000000000e+00
	2.768807987166437e-06
	2.768807987166424e-06
75	7.500000000000000e-12
	0.000000000000000e+00
	0.000000000000000e+00
	0.000000000000000e+00
	2.369378069873032e-07
	2.369378069872893e-07
76	7.600000000000000e-12
	0.000000000000000e+00
	0.000000000000000e+00
	0.000000000000000e+00
	-1.960221117369337e-06
	-1.960221117369351e-06
77	7.700000000000000e-12
	0.000000000000000e+00
	0.000000000000000e+00
	0.000000000000000e+00
	-3.645765236605602e-06
	-3.645765236605643e-06
78	7.800000000000000e-12
	0.000000000000000e+00
	0.000000000000000e+00
	0.000000000000000e+00
	-4.719729947720816e-06
	-4.719729947720885e-06
79	7.900000000000000e-12
	0.000000000000000e+00
	0.000000000000000e+00
	0.000000000000000e+00
	-5.158593737255984e-06
	-5.158593737256054e-06
80	8.000000000000000e-12
	0.000000000000000e+00
	0.000000000000000e+00
	0.000000000000000e+00
	-5.007150969375239e-06
	-5.007150969375311e-06
81	8.100000000000000e-12
	0.000000000000000e+00
	0.000000000000000e+00
	0.000000000000000e+00
	-4.364535874493613e-06
	-4.364535874493688e-06
82	8.200000000000000e-12
	0.000000000000000e+00
	0.000000000000000e+00
	0.000000000000000e+00
	-3.366541209168986e-06
	-3.366541209169006e-06
83	8.300000000000000e-12
	0.000000000000000e+00
	0.000000000000000e+00
	0.000000000000000e+00
	-2.166508056252949e-06
	-2.166508056252860e-06
84	8.400000000000000e-12
	0.000000000000000e+00
	0.000000000000000e+00
	0.000000000000000e+00
	-9.169582833037757e-07
	-9.169582833035919e-07
85	8.500000000000000e-12
	0.000000000000000e+00
	0.000000000000000e+00
	0.000000000000000e+00
	2.461854438596527e-07
	2.461854438598910e-07
86	8.600000000000000e-12
	0.000000000000000e+00
	0.000000000000000e+00
	0.000000000000000e+00
	1.215448077901803e-06
	1.215448077902040e-06
87	8.700000000000000e-12
	0.000000000000000e+00
	0.000000000000000e+00
	0.000000000000000e+00
	1.918977062688563e-06
	1.918977062688786e-06
88	8.800000000000000e-12
	0.000000000000000e+00
	0.000000000000000e+00
	0.000000000000000e+00
	2.322919519717066e-06
	2.322919519717261e-06
89	8.900000000000000e-12
	0.000000000000000e+00
	0.000000000000000e+00
	0.000000000000000e+00
	2.429430123377565e-06
	2.429430123377719e-06
90	9.000000000000000e-12
	0.000000000000000e+00
	0.000000000000000e+00
	0.000000000000000e+00
	2.271162794528614e-06
	2.271162794528740e-06
91	9.100000000000000e-12
	0.000000000000000e+00
	0.000000000000000e+00
	0.000000000000000e+00
	1.903361143082872e-06
	1.903361143082970e-06
92	9.200000000000000e-12
	0.000000000000000e+00
	0.000000000000000e+00
	0.000000000000000e+00
	1.394755046353928e-06
	1.394755046354012e-06
93	9.300000000000000e-12
	0.000000000000000e+00
	0.000000000000000e+00
	0.000000000000000e+00
	8.184117684319695e-07
	8.184117684320404e-07
94	9.400000000000000e-12
	0.000000000000000e+00
	0.000000000000000e+00
	0.000000000000000e+00
	2.435137402161676e-07
	2.435137402162384e-07
95	9.500000000000000e-12
	0.000000000000000e+00
	0.000000000000000e+00
	0.000000000000000e+00
	-2.712169693054983e-07
	-2.712169693054551e-07
96	9.599999999999999e-12
	0.000000000000000e+00
	0.000000000000000e+00
	0.000000000000000e+00
	-6.820139533461178e-07
	-6.820139533461446e-07
97	9.699999999999999e-12
	0.000000000000000e+00
	0.000000000000000e+00
	0.000000000000000e+00
	-9.623326116846069e-07
	-9.623326116846742e-07
98	9.799999999999999e-12
	0.000000000000000e+00
	0.000000000000000e+00
	0.000000000000000e+00
	-1.102992307623437e-06
	-1.102992307623515e-06
99	9.899999999999999e-12
	0.000000000000000e+00
	0.000000000000000e+00
	0.000000000000000e+00
	-1.110503066552350e-06
	-1.110503066552428e-06
100	9.999999999999999e-12
	0.000000000000000e+00
	0.000000000000000e+00
	0.000000000000000e+00
	-1.004025932569806e-06
	-1.004025932569869e-06
101	1.010000000000000e-11
	0.000000000000000e+00
	0.000000000000000e+00
	0.000000000000000e+00
	-8.114894632394371e-07
	-8.114894632394994e-07
102	1.020000000000000e-11
	0.000000000000000e+00
	0.000000000000000e+00
	0.000000000000000e+00
	-5.653933817122765e-07
	-5.653933817123231e-07
103	1.030000000000000e-11
	0.000000000000000e+00
	0.000000000000000e+00
	0.000000000000000e+00
	-2.987824400187674e-07
	-2.987824400187717e-07
104	1.040000000000000e-11
	0.000000000000000e+00
	0.000000000000000e+00
	0.000000000000000e+00
	-4.178204301928111e-08
	-4.178204301924569e-08
105	1.050000000000000e-11
	0.000000000000000e+00
	0.000000000000000e+00
	0.000000000000000e+00
	1.810319390558829e-07
	1.810319390559614e-07
106	1.060000000000000e-11
	0.000000000000000e+00
	0.000000000000000e+00
	0.000000000000000e+00
	3.522866033136239e-07
	3.522866033137327e-07
107	1.070000000000000e-11
	0.000000000000000e+00
	0.000000000000000e+00
	0.000000000000000e+00
	4.624709440666245e-07
	4.624709440667324e-07
108	1.080000000000000e-11
	0.000000000000000e+00
	0.000000000000000e+00
	0.000000000000000e+00
	5.096893821573983e-07
	5.096893821575062e-07
109	1.090000000000000e-11
	0.000000000000000e+00
	0.000000000000000e+00
	0.000000000000000e+00
	4.986790158525563e-07
	4.986790158526496e-07
110	1.100000000000000e-11
	0.000000000000000e+00
	0.000000000000000e+00
	0.000000000000000e+00
	4.393085862791119e-07
	4.393085862791888e-07
111	1.110000000000000e-11
	0.000000000000000e+00
	0.000000000000000e+00
	0.000000000000000e+00
	3.447948738858083e-07
	3.447948738858826e-07
112	1.120000000000000e-11
	0.000000000000000e+00
	0.000000000000000e+00
	0.000000000000000e+00
	2.298623578609513e-07
	2.298623578610092e-07
113	1.130000000000000e-11
	0.000000000000000e+00
	0.000000000000000e+00
	0.000000000000000e+00
	1.090404449538451e-07
	1.090404449539003e-07
114	1.140000000000000e-11
	0.000000000000000e+00
	0.000000000000000e+00
	0.000000000000000e+00
	-4.753392280473767e-09
	-4.753392280419372e-09
115	1.150000000000000e-11
	0.000000000000000e+00
	0.000000000000000e+00
	0.000000000000000e+00
	-1.012492839895983e-07
	-1.012492839895569e-07
116	1.160000000000000e-11
	0.000000000000000e+00
	0.000000000000000e+00
	0.000000000000000e+00
	-1.734376417206270e-07
	-1.734376417205856e-07
117	1.170000000000000e-11
	0.000000000000000e+00
	0.000000000000000e+00
	0.000000000000000e+00
	-2.177655604559184e-07
	-2.177655604558752e-07
118	1.180000000000000e-11
	0.000000000000000e+00
	0.000000000000000e+00
	0.000000000000000e+00
	-2.339633145833793e-07
	-2.339633145833352e-07
119	1.190000000000000e-11
	0.000000000000000e+00
	0.000000000000000e+00
	0.000000000000000e+00
	-2.245758403047542e-07
	-2.245758403047093e-07
120	1.200000000000000e-11
	0.000000000000000e+00
	0.000000000000000e+00
	0.000000000000000e+00
	-1.942906828756691e-07
	-1.942906828756216e-07
121	1.210000000000000e-11
	0.000000000000000e+00
	0.000000000000000e+00
	0.000000000000000e+00
	-1.491590010095009e-07
	-1.491590010094370e-07
122	1.220000000000000e-11
	0.000000000000000e+00
	0.000000000000000e+00
	0.000000000000000e+00
	-9.580131002288447e-08
	-9.580131002280591e-08
123	1.230000000000000e-11
	0.000000000000000e+00
	0.000000000000000e+00
	0.000000000000000e+00
	-4.067683162688941e-08
	-4.067683162681084e-08
124	1.240000000000000e-11
	0.000000000000000e+00
	0.000000000000000e+00
	0.000000000000000e+00
	1.052291027411224e-08
	1.052291027419168e-08
125	1.250000000000000e-11
	0.000000000000000e+00
	0.000000000000000e+00
	0.000000000000000e+00
	5.331668284260527e-08
	5.331668284268470e-08
126	1.260000000000000e-11
	0.000000000000000e+00
	0.000000000000000e+00
	0.000000000000000e+00
	8.469427621876193e-08
	8.469427621884049e-08
127	1.270000000000000e-11
	0.000000000000000e+00
	0.000000000000000e+00
	0.000000000000000e+00
	1.031972247762848e-07
	1.031972247763349e-07
128	1.280000000000000e-11
	0.000000000000000e+00
	0.000000000000000e+00
	0.000000000000000e+00
	1.088380808257167e-07
	1.088380808257271e-07
129	1.290000000000000e-11
	0.000000000000000e+00
	0.000000000000000e+00
	0.000000000000000e+00
	1.028892920601988e-07
	1.028892920601824e-07
130	1.300000000000000e-11
	0.000000000000000e+00
	0.000000000000000e+00
	0.000000000000000e+00
	8.758050452599021e-08
	8.758050452594705e-08
131	1.310000000000000e-11
	0.000000000000000e+00
	0.000000000000000e+00
	0.000000000000000e+00
	6.574616788015454e-08
	6.574616788011482e-08
132	1.320000000000000e-11
	0.000000000000000e+00
	0.000000000000000e+00
	0.000000000000000e+00
	4.046407577962590e-08
	4.046407577960086e-08
133	1.330000000000000e-11
	0.000000000000000e+00
	0.000000000000000e+00
	0.000000000000000e+00
	1.472066061893338e-08
	1.472066061890748e-08
134	1.340000000000000e-11
	0.000000000000000e+00
	0.000000000000000e+00
	0.000000000000000e+00
	-8.868589155166799e-09
	-8.868589155178025e-09
135	1.350000000000000e-11
	0.000000000000000e+00
	0.000000000000000e+00
	0.000000000000000e+00
	-2.826428057942500e-08
	-2.826428057939478e-08
136	1.360000000000000e-11
	0.000000000000000e+00
	0.000000000000000e+00
	0.000000000000000e+00
	-4.212416826545306e-08
	-4.212416826538399e-08
137	1.370000000000000e-11
	0.000000000000000e+00
	0.000000000000000e+00
	0.000000000000000e+00
	-4.983971498032700e-08
	-4.983971498025707e-08
138	1.380000000000000e-11
	0.000000000000000e+00
	0.000000000000000e+00
	0.000000000000000e+00
	-5.149588537682139e-08
	-5.149588537674973e-08
139	1.390000000000000e-11
	0.000000000000000e+00
	0.000000000000000e+00
	0.000000000000000e+00
	-4.776825601943856e-08
	-4.776825601934100e-08
140	1.400000000000000e-11
	0.000000000000000e+00
	0.000000000000000e+00
	0.000000000000000e+00
	-3.977575133117904e-08
	-3.977575133109875e-08
141	1.410000000000000e-11
	0.000000000000000e+00
	0.000000000000000e+00
	0.000000000000000e+00
	-2.890926939991311e-08
	-2.890926939986390e-08
142	1.420000000000000e-11
	0.000000000000000e+00
	0.000000000000000e+00
	0.000000000000000e+00
	-1.665622654280304e-08
	-1.665622654275296e-08
143	1.430000000000000e-11
	0.000000000000000e+00
	0.000000000000000e+00
	0.000000000000000e+00
	-4.438902410343154e-09
	-4.438902410292214e-09
144	1.440000000000000e-11
	0.000000000000000e+00
	0.000000000000000e+00
	0.000000000000000e+00
	6.519163550933556e-09
	6.519163550996582e-09
145	1.450000000000000e-11
	0.000000000000000e+00
	0.000000000000000e+00
	0.000000000000000e+00
	1.528906330563021e-08
	1.528906330572000e-08
146	1.460000000000000e-11
	0.000000000000000e+00
	0.000000000000000e+00
	0.000000000000000e+00
	2.129002463045699e-08
	2.129002463051915e-08
147	1.470000000000000e-11
	0.000000000000000e+00
	0.000000000000000e+00
	0.000000000000000e+00
	2.430069645150530e-08
	2.430069645149926e-08
148	1.480000000000000e-11
	0.000000000000000e+00
	0.000000000000000e+00
	0.000000000000000e+00
	2.443261297651792e-08
	2.443261297642899e-08
149	1.490000000000000e-11
	0.000000000000000e+00
	0.000000000000000e+00
	0.000000000000000e+00
	2.207349774995010e-08
	2.207349774979383e-08
150	1.500000000000001e-11
	0.000000000000000e+00
	0.000000000000000e+00
	0.000000000000000e+00
	1.781014828004315e-08
	1.781014827985149e-08
151	1.510000000000001e-11
	0.000000000000000e+00
	0.000000000000000e+00
	0.000000000000000e+00
	1.234146663777452e-08
	1.234146663758545e-08
152	1.520000000000001e-11
	0.000000000000000e+00
	0.000000000000000e+00
	0.000000000000000e+00
	6.391838134148380e-09
	6.391838134002472e-09
153	1.530000000000001e-11
	0.000000000000000e+00
	0.000000000000000e+00
	0.000000000000000e+00
	6.336913591127148e-10
	6.336913589719873e-10
154	1.540000000000001e-11
	0.000000000000000e+00
	0.000000000000000e+00
	0.000000000000000e+00
	-4.374035270821137e-09
	-4.374035270933375e-09
155	1.550000000000001e-11
	0.000000000000000e+00
	0.000000000000000e+00
	0.000000000000000e+00
	-8.227330521653811e-09
	-8.227330521700432e-09
156	1.560000000000002e-11
	0.000000000000000e+00
	0.000000000000000e+00
	0.000000000000000e+00
	-1.069690359407360e-08
	-1.069690359408137e-08
157	1.570000000000002e-11
	0.000000000000000e+00
	0.000000000000000e+00
	0.000000000000000e+00
	-1.172724436626307e-08
	-1.172724436625789e-08
158	1.580000000000002e-11
	0.000000000000000e+00
	0.000000000000000e+00
	0.000000000000000e+00
	-1.141789878111512e-08
	-1.141789878109699e-08
159	1.590000000000002e-11
	0.000000000000000e+00
	0.000000000000000e+00
	0.000000000000000e+00
	-9.991362887935116e-09
	-9.991362887916985e-09
160	1.600000000000002e-11
	0.000000000000000e+00
	0.000000000000000e+00
	0.000000000000000e+00
	-7.752794069201810e-09
	-7.752794069196630e-09
161	1.610000000000002e-11
	0.000000000000000e+00
	0.000000000000000e+00
	0.000000000000000e+00
	-5.046875705394879e-09
	-5.046875705389699e-09
162	1.620000000000003e-11
	0.000000000000000e+00
	0.000000000000000e+00
	0.000000000000000e+00
	-2.216725701161489e-09
	-2.216725701170986e-09
163	1.630000000000003e-11
	0.000000000000000e+00
	0.000000000000000e+00
	0.000000000000000e+00
	4.311628430924480e-10
	4.311628430656842e-10
164	1.640000000000003e-11
	0.000000000000000e+00
	0.000000000000000e+00
	0.000000000000000e+00
	2.653159285241831e-09
	2.653159285209886e-09
165	1.650000000000003e-11
	0.000000000000000e+00
	0.000000000000000e+00
	0.000000000000000e+00
	4.284447114151266e-09
	4.284447114102054e-09
166	1.660000000000003e-11
	0.000000000000000e+00
	0.000000000000000e+00
	0.000000000000000e+00
	5.244516707286124e-09
	5.244516707193745e-09
167	1.670000000000003e-11
	0.000000000000000e+00
	0.000000000000000e+00
	0.000000000000000e+00
	5.533149723263012e-09
	5.533149723143868e-09
168	1.680000000000004e-11
	0.000000000000000e+00
	0.000000000000000e+00
	0.000000000000000e+00
	5.218704721629898e-09
	5.218704721499531e-09
169	1.690000000000004e-11
	0.000000000000000e+00
	0.000000000000000e+00
	0.000000000000000e+00
	4.421054514759169e-09
	4.421054514644342e-09
170	1.700000000000004e-11
	0.000000000000000e+00
	0.000000000000000e+00
	0.000000000000000e+00
	3.291737458847150e-09
	3.291737458748726e-09
171	1.710000000000004e-11
	0.000000000000000e+00
	0.000000000000000e+00
	0.000000000000000e+00
	1.993793846487069e-09
	1.993793846376558e-09
172	1.720000000000004e-11
	0.000000000000000e+00
	0.000000000000000e+00
	0.000000000000000e+00
	6.834202156614899e-10
	6.834202155406193e-10
173	1.730000000000004e-11
	0.000000000000000e+00
	0.000000000000000e+00
	0.000000000000000e+00
	-5.049373935372953e-10
	-5.049373936132713e-10
174	1.740000000000004e-11
	0.000000000000000e+00
	0.000000000000000e+00
	0.000000000000000e+00
	-1.469034146695683e-09
	-1.469034146675826e-09
175	1.750000000000005e-11
	0.000000000000000e+00
	0.000000000000000e+00
	0.000000000000000e+00
	-2.144421544079140e-09
	-2.144421543990214e-09
176	1.760000000000005e-11
	0.000000000000000e+00
	0.000000000000000e+00
	0.000000000000000e+00
	-2.505350945279458e-09
	-2.505350945120599e-09
177	1.770000000000005e-11
	0.000000000000000e+00
	0.000000000000000e+00
	0.000000000000000e+00
	-2.561607921522125e-09
	-2.561607921309738e-09
178	1.780000000000005e-11
	0.000000000000000e+00
	0.000000000000000e+00
	0.000000000000000e+00
	-2.352221704499917e-09
	-2.352221704249542e-09
179	1.790000000000005e-11
	0.000000000000000e+00
	0.000000000000000e+00
	0.000000000000000e+00
	-1.937167360639761e-09
	-1.937167360365212e-09
180	1.800000000000005e-11
	0.000000000000000e+00
	0.000000000000000e+00
	0.000000000000000e+00
	-1.388209057663818e-09
	-1.388209057420350e-09
181	1.810000000000006e-11
	0.000000000000000e+00
	0.000000000000000e+00
	0.000000000000000e+00
	-7.799408566888430e-10
	-7.799408565455248e-10
182	1.820000000000006e-11
	0.000000000000000e+00
	0.000000000000000e+00
	0.000000000000000e+00
	-1.818963688199369e-10
	-1.818963688294339e-10
183	1.830000000000006e-11
	0.000000000000000e+00
	0.000000000000000e+00
	0.000000000000000e+00
	3.476453616313988e-10
	3.476453615148449e-10
184	1.840000000000006e-11
	0.000000000000000e+00
	0.000000000000000e+00
	0.000000000000000e+00
	7.657986522620654e-10
	7.657986521178838e-10
185	1.850000000000006e-11
	0.000000000000000e+00
	0.000000000000000e+00
	0.000000000000000e+00
	1.047056905901859e-09
	1.047056905727460e-09
186	1.860000000000006e-11
	0.000000000000000e+00
	0.000000000000000e+00
	0.000000000000000e+00
	1.183256757171341e-09
	1.183256756983128e-09
187	1.870000000000007e-11
	0.000000000000000e+00
	0.000000000000000e+00
	0.000000000000000e+00
	1.181831666913366e-09
	1.181831666770048e-09
188	1.880000000000007e-11
	0.000000000000000e+00
	0.000000000000000e+00
	0.000000000000000e+00
	1.062786198073554e-09
	1.062786197963907e-09
189	1.890000000000007e-11
	0.000000000000000e+00
	0.000000000000000e+00
	0.000000000000000e+00
	8.548810335565987e-10
	8.548810334780328e-10
190	1.900000000000007e-11
	0.000000000000000e+00
	0.000000000000000e+00
	0.000000000000000e+00
	5.915205699360694e-10
	5.915205699265723e-10
191	1.910000000000007e-11
	0.000000000000000e+00
	0.000000000000000e+00
	0.000000000000000e+00
	3.067887793895169e-10
	3.067887794352751e-10
192	1.920000000000007e-11
	0.000000000000000e+00
	0.000000000000000e+00
	0.000000000000000e+00
	3.199717209840475e-11
	3.199717217179051e-11
193	1.930000000000007e-11
	0.000000000000000e+00
	0.000000000000000e+00
	0.000000000000000e+00
	-2.069953508661005e-10
	-2.069953507668138e-10
194	1.940000000000008e-11
	0.000000000000000e+00
	0.000000000000000e+00
	0.000000000000000e+00
	-3.915438302638821e-10
	-3.915438301404213e-10
195	1.950000000000008e-11
	0.000000000000000e+00
	0.000000000000000e+00
	0.000000000000000e+00
	-5.110225567216324e-10
	-5.110225565601837e-10
196	1.960000000000008e-11
	0.000000000000000e+00
	0.000000000000000e+00
	0.000000000000000e+00
	-5.627339684550360e-10
	-5.627339682555994e-10
197	1.970000000000008e-11
	0.000000000000000e+00
	0.000000000000000e+00
	0.000000000000000e+00
	-5.510576837672057e-10
	-5.510576835591354e-10
198	1.980000000000008e-11
	0.000000000000000e+00
	0.000000000000000e+00
	0.000000000000000e+00
	-4.860291359768653e-10
	-4.860291357877889e-10
199	1.990000000000008e-11
	0.000000000000000e+00
	0.000000000000000e+00
	0.000000000000000e+00
	-3.815648641875615e-10
	-3.815648640425167e-10
200	2.000000000000009e-11
	0.000000000000000e+00
	0.000000000000000e+00
	0.000000000000000e+00
	-2.535548867184841e-10
	-2.535548866148807e-10
201	2.010000000000009e-11
	0.000000000000000e+00
	0.000000000000000e+00
	0.000000000000000e+00
	-1.180248528802820e-10
	-1.180248528181200e-10
202	2.020000000000009e-11
	0.000000000000000e+00
	0.000000000000000e+00
	0.000000000000000e+00
	1.046362924104493e-11
	1.046362924795181e-11
203	2.030000000000009e-11
	0.000000000000000e+00
	0.000000000000000e+00
	0.000000000000000e+00
	1.200515754780225e-10
	1.200515754573018e-10
204	2.040000000000009e-11
	0.000000000000000e+00
	0.000000000000000e+00
	0.000000000000000e+00
	2.023882216194943e-10
	2.023882215581957e-10
205	2.050000000000009e-11
	0.000000000000000e+00
	0.000000000000000e+00
	0.000000000000000e+00
	2.529828667813253e-10
	2.529828666518210e-10
206	2.060000000000010e-11
	0.000000000000000e+00
	0.000000000000000e+00
	0.000000000000000e+00
	2.711286982627331e-10
	2.711286981194150e-10
207	2.070000000000010e-11
	0.000000000000000e+00
	0.000000000000000e+00
	0.000000000000000e+00
	2.594624510279539e-10
	2.594624509131268e-10
208	2.080000000000010e-11
	0.000000000000000e+00
	0.000000000000000e+00
	0.000000000000000e+00
	2.232509513629499e-10
	2.232509512619365e-10
209	2.090000000000010e-11
	0.000000000000000e+00
	0.000000000000000e+00
	0.000000000000000e+00
	1.695106269845049e-10
	1.695106269249329e-10
210	2.100000000000010e-11
	0.000000000000000e+00
	0.000000000000000e+00