Title: ** INVERTER GATE ****
Date: 04-10-2021 20:16:06
Plotname: transient analysis
Flags: real
No. Variables: 4       
No. Points: 5000    
Variables: 0 time time
 1 V(1,0) voltage
 2 V(2,0) voltage
 3 V(3,0) voltage
Values:
0	1.000000000000000e-13
	0.000000000000000e+00
	1.020216925853911e-06
	0.000000000000000e+00
1	2.000000000000000e-13
	0.000000000000000e+00
	3.421379468333285e-06
	0.000000000000000e+00
2	3.000000000000000e-13
	0.000000000000000e+00
	7.837517841696056e-06
	0.000000000000000e+00
3	4.000000000000000e-13
	0.000000000000000e+00
	1.334288864424687e-05
	0.000000000000000e+00
4	5.000000000000000e-13
	0.000000000000000e+00
	1.958119063052159e-05
	0.000000000000000e+00
5	6.000000000000000e-13
	0.000000000000000e+00
	2.621013630563783e-05
	0.000000000000000e+00
6	6.999999999999999e-13
	0.000000000000000e+00
	3.291648722023266e-05
	0.000000000000000e+00
7	7.999999999999999e-13
	0.000000000000000e+00
	3.942290397618499e-05
	0.000000000000000e+00
8	8.999999999999999e-13
	0.000000000000000e+00
	4.549349223079626e-05
	0.000000000000000e+00
9	1.000000000000000e-12
	0.000000000000000e+00
	5.093791391775987e-05
	0.000000000000000e+00
10	1.100000000000000e-12
	0.000000000000000e+00
	5.561393319586579e-05
	0.000000000000000e+00
11	1.200000000000000e-12
	0.000000000000000e+00
	5.942824153589626e-05
	0.000000000000000e+00
12	1.300000000000000e-12
	0.000000000000000e+00
	6.233544342254250e-05
	0.000000000000000e+00
13	1.400000000000000e-12
	0.000000000000000e+00
	6.433517501335621e-05
	0.000000000000000e+00
14	1.500000000000000e-12
	0.000000000000000e+00
	6.546745545705331e-05
	0.000000000000000e+00
15	1.600000000000000e-12
	0.000000000000000e+00
	6.580651103366017e-05
	0.000000000000000e+00
16	1.700000000000000e-12
	0.000000000000000e+00
	6.545344116856442e-05
	0.000000000000000e+00
17	1.800000000000000e-12
	0.000000000000000e+00
	6.452819142166932e-05
	0.000000000000000e+00
18	1.900000000000000e-12
	0.000000000000000e+00
	6.316134743071236e-05
	0.000000000000000e+00
19	2.000000000000000e-12
	0.000000000000000e+00
	6.148625986389715e-05
	0.000000000000000e+00
20	2.100000000000000e-12
	0.000000000000000e+00
	5.963195664281186e-05
	0.000000000000000e+00
21	2.200000000000000e-12
	0.000000000000000e+00
	5.771720484277228e-05
	0.000000000000000e+00
22	2.300000000000000e-12
	0.000000000000000e+00
	5.584596487346868e-05
	0.000000000000000e+00
23	2.400000000000000e-12
	0.000000000000000e+00
	5.410434941803812e-05
	0.000000000000000e+00
24	2.500000000000000e-12
	0.000000000000000e+00
	5.255907389583613e-05
	0.000000000000000e+00
25	2.600000000000000e-12
	0.000000000000000e+00
	5.125727600723740e-05
	0.000000000000000e+00
26	2.700000000000000e-12
	0.000000000000000e+00
	5.022749769223014e-05
	0.000000000000000e+00
27	2.800000000000000e-12
	0.000000000000000e+00
	4.948156813904613e-05
	0.000000000000000e+00
28	2.900000000000000e-12
	0.000000000000000e+00
	4.901710215258941e-05
	0.000000000000000e+00
29	3.000000000000000e-12
	0.000000000000000e+00
	4.882033191590592e-05
	0.000000000000000e+00
30	3.100000000000000e-12
	0.000000000000000e+00
	4.886901723101137e-05
	0.000000000000000e+00
31	3.200000000000000e-12
	0.000000000000000e+00
	4.913522343287476e-05
	0.000000000000000e+00
32	3.300000000000000e-12
	0.000000000000000e+00
	4.958781035659582e-05
	0.000000000000000e+00
33	3.400000000000000e-12
	0.000000000000000e+00
	5.019453312220256e-05
	0.000000000000000e+00
34	3.500000000000000e-12
	0.000000000000000e+00
	5.092370997783789e-05
	0.000000000000000e+00
35	3.600000000000000e-12
	0.000000000000000e+00
	5.174545919431646e-05
	0.000000000000000e+00
36	3.700000000000000e-12
	0.000000000000000e+00
	5.263254282456010e-05
	0.000000000000000e+00
37	3.800000000000000e-12
	0.000000000000000e+00
	5.356087853833709e-05
	0.000000000000000e+00
38	3.900000000000000e-12
	0.000000000000000e+00
	5.450979184433940e-05
	0.000000000000000e+00
39	4.000000000000000e-12
	0.000000000000000e+00
	5.546208129999185e-05
	0.000000000000000e+00
40	4.100000000000000e-12
	0.000000000000000e+00
	5.640396123259076e-05
	0.000000000000000e+00
41	4.200000000000000e-12
	0.000000000000000e+00
	5.732493301929269e-05
	0.000000000000000e+00
42	4.300000000000000e-12
	0.000000000000000e+00
	5.821762013578429e-05
	0.000000000000000e+00
43	4.400000000000000e-12
	0.000000000000000e+00
	5.907758670569340e-05
	0.000000000000000e+00
44	4.500000000000000e-12
	0.000000000000000e+00
	5.990314628224168e-05
	0.000000000000000e+00
45	4.600000000000000e-12
	0.000000000000000e+00
	6.069515841823526e-05
	0.000000000000000e+00
46	4.700000000000000e-12
	0.000000000000000e+00
	6.145680577021349e-05
	0.000000000000000e+00
47	4.800000000000000e-12
	0.000000000000000e+00
	6.219334384304287e-05
	0.000000000000000e+00
48	4.900000000000000e-12
	0.000000000000000e+00
	6.291181824209454e-05
	0.000000000000000e+00
49	5.000000000000000e-12
	0.000000000000000e+00
	6.362074932333567e-05
	0.000000000000000e+00
50	5.100000000000000e-12
	0.000000000000000e+00
	6.330957320771381e-05
	0.000000000000000e+00
51	5.200000000000000e-12
	0.000000000000000e+00
	6.114891731644617e-05
	0.000000000000000e+00
52	5.300000000000000e-12
	0.000000000000000e+00
	5.749469905443169e-05
	0.000000000000000e+00
53	5.400000000000000e-12
	0.000000000000000e+00
	5.267777805644685e-05
	0.000000000000000e+00
54	5.500000000000000e-12
	0.000000000000000e+00
	4.700742818020392e-05
	0.000000000000000e+00
55	5.600000000000000e-12
	0.000000000000000e+00
	4.076705168576129e-05
	0.000000000000000e+00
56	5.700000000000000e-12
	0.000000000000000e+00
	3.421189029433585e-05
	0.000000000000000e+00
57	5.800000000000000e-12
	0.000000000000000e+00
	2.756801015456266e-05
	0.000000000000000e+00
58	5.899999999999999e-12
	0.000000000000000e+00
	2.103205730178643e-05
	0.000000000000000e+00
59	5.999999999999999e-12
	0.000000000000000e+00
	1.477143442671266e-05
	0.000000000000000e+00
60	6.099999999999999e-12
	0.000000000000000e+00
	8.924701180406727e-06
	0.000000000000000e+00
61	6.199999999999999e-12
	0.000000000000000e+00
	3.602128312620902e-06
	0.000000000000000e+00
62	6.299999999999999e-12
	0.000000000000000e+00
	-1.113571002507415e-06
	0.000000000000000e+00
63	6.399999999999999e-12
	0.000000000000000e+00
	-5.166255648211528e-06
	0.000000000000000e+00
64	6.499999999999999e-12
	0.000000000000000e+00
	-8.525024027764218e-06
	0.000000000000000e+00
65	6.599999999999999e-12
	0.000000000000000e+00
	-1.118245765985677e-05
	0.000000000000000e+00
66	6.699999999999999e-12
	0.000000000000000e+00
	-1.315240290419223e-05
	0.000000000000000e+00
67	6.799999999999999e-12
	0.000000000000000e+00
	-1.446730419942925e-05
	0.000000000000000e+00
68	6.899999999999999e-12
	0.000000000000000e+00
	-1.517515579620698e-05
	0.000000000000000e+00
69	6.999999999999999e-12
	0.000000000000000e+00
	-1.533618569370831e-05
	0.000000000000000e+00
70	7.099999999999999e-12
	0.000000000000000e+00
	-1.501941844537628e-05
	0.000000000000000e+00
71	7.199999999999999e-12
	0.000000000000000e+00
	-1.429927860836997e-05
	0.000000000000000e+00
72	7.300000000000000e-12
	0.000000000000000e+00
	-1.325239281597923e-05
	0.000000000000000e+00
73	7.400000000000000e-12
	0.000000000000000e+00
	-1.195472751250070e-05
	0.000000000000000e+00
74	7.500000000000000e-12
	0.000000000000000e+00
	-1.047916531037247e-05
	0.000000000000000e+00
75	7.600000000000000e-12
	0.000000000000000e+00
	-8.893581130419982e-06
	0.000000000000000e+00
76	7.700000000000000e-12
	0.000000000000000e+00
	-7.259435665100095e-06
	0.000000000000000e+00
77	7.800000000000000e-12
	0.000000000000000e+00
	-5.630863735745279e-06
	0.000000000000000e+00
78	7.900000000000000e-12
	0.000000000000000e+00
	-4.054203121683146e-06
	0.000000000000000e+00
79	8.000000000000000e-12
	0.000000000000000e+00
	-2.567888129871624e-06
	0.000000000000000e+00
80	8.100000000000000e-12
	0.000000000000000e+00
	-1.202622474825859e-06
	0.000000000000000e+00
81	8.200000000000000e-12
	0.000000000000000e+00
	1.825278796920966e-08
	0.000000000000000e+00
82	8.300000000000000e-12
	0.000000000000000e+00
	1.078270547025768e-06
	0.000000000000000e+00
83	8.400000000000000e-12
	0.000000000000000e+00
	1.967286515192102e-06
	0.000000000000000e+00
84	8.500000000000000e-12
	0.000000000000000e+00
	2.680905491422966e-06
	0.000000000000000e+00
85	8.600000000000000e-12
	0.000000000000000e+00
	3.219906539058190e-06
	0.000000000000000e+00
86	8.700000000000000e-12
	0.000000000000000e+00
	3.589673175945553e-06
	0.000000000000000e+00
87	8.800000000000000e-12
	0.000000000000000e+00
	3.799623704275705e-06
	0.000000000000000e+00
88	8.900000000000000e-12
	0.000000000000000e+00
	3.862631069691352e-06
	0.000000000000000e+00
89	9.000000000000000e-12
	0.000000000000000e+00
	3.794421027071526e-06
	0.000000000000000e+00
90	9.100000000000000e-12
	0.000000000000000e+00
	3.612941093207294e-06
	0.000000000000000e+00
91	9.200000000000000e-12
	0.000000000000000e+00
	3.337699484793152e-06
	0.000000000000000e+00
92	9.300000000000000e-12
	0.000000000000000e+00
	2.989081432544169e-06
	0.000000000000000e+00
93	9.400000000000000e-12
	0.000000000000000e+00
	2.587658383519815e-06
	0.000000000000000e+00
94	9.500000000000000e-12
	0.000000000000000e+00
	2.153512304981543e-06
	0.000000000000000e+00
95	9.599999999999999e-12
	0.000000000000000e+00
	1.705601577375348e-06
	0.000000000000000e+00
96	9.699999999999999e-12
	0.000000000000000e+00
	1.261196229085967e-06
	0.000000000000000e+00
97	9.799999999999999e-12
	0.000000000000000e+00
	8.354083845920406e-07
	0.000000000000000e+00
98	9.899999999999999e-12
	0.000000000000000e+00
	4.408390448193304e-07
	0.000000000000000e+00
99	9.999999999999999e-12
	0.000000000000000e+00
	8.735530189439586e-08
	0.000000000000000e+00
100	1.010000000000000e-11
	0.000000000000000e+00
	-2.179963540616211e-07
	0.000000000000000e+00
101	1.020000000000000e-11
	0.000000000000000e+00
	-4.709439070149938e-07
	0.000000000000000e+00
102	1.030000000000000e-11
	0.000000000000000e+00
	-6.698226157729772e-07
	0.000000000000000e+00
103	1.040000000000000e-11
	0.000000000000000e+00
	-8.153057037027217e-07
	0.000000000000000e+00
104	1.050000000000000e-11
	0.000000000000000e+00
	-9.100572169804600e-07
	0.000000000000000e+00
105	1.060000000000000e-11
	0.000000000000000e+00
	-9.583343827407551e-07
	0.000000000000000e+00
106	1.070000000000000e-11
	0.000000000000000e+00
	-9.655674712654504e-07
	0.000000000000000e+00
107	1.080000000000000e-11
	0.000000000000000e+00
	-9.379435999030046e-07
	0.000000000000000e+00
108	1.090000000000000e-11
	0.000000000000000e+00
	-8.820174620268661e-07
	0.000000000000000e+00
109	1.100000000000000e-11
	0.000000000000000e+00
	-8.043671255411142e-07
	0.000000000000000e+00
110	1.110000000000000e-11
	0.000000000000000e+00
	-7.113074082078557e-07
	0.000000000000000e+00
111	1.120000000000000e-11
	0.000000000000000e+00
	-6.086674987121961e-07
	0.000000000000000e+00
112	1.130000000000000e-11
	0.000000000000000e+00
	-5.016339972978753e-07
	0.000000000000000e+00
113	1.140000000000000e-11
	0.000000000000000e+00
	-3.946558387482646e-07
	0.000000000000000e+00
114	1.150000000000000e-11
	0.000000000000000e+00
	-2.914039374906486e-07
	0.000000000000000e+00
115	1.160000000000000e-11
	0.000000000000000e+00
	-1.947760132276410e-07
	0.000000000000000e+00
116	1.170000000000000e-11
	0.000000000000000e+00
	-1.069359234766360e-07
	0.000000000000000e+00
117	1.180000000000000e-11
	0.000000000000000e+00
	-2.937682873088192e-08
	0.000000000000000e+00
118	1.190000000000000e-11
	0.000000000000000e+00
	3.700156589028514e-08
	0.000000000000000e+00
119	1.200000000000000e-11
	0.000000000000000e+00
	9.180988156685049e-08
	0.000000000000000e+00
120	1.210000000000000e-11
	0.000000000000000e+00
	1.350863115877068e-07
	0.000000000000000e+00
121	1.220000000000000e-11
	0.000000000000000e+00
	1.672184919847646e-07
	0.000000000000000e+00
122	1.230000000000000e-11
	0.000000000000000e+00
	1.888723804135479e-07
	0.000000000000000e+00
123	1.240000000000000e-11
	0.000000000000000e+00
	2.009289765094355e-07
	0.000000000000000e+00
124	1.250000000000000e-11
	0.000000000000000e+00
	2.044285840164126e-07
	0.000000000000000e+00
125	1.260000000000000e-11
	0.000000000000000e+00
	2.005216314490808e-07
	0.000000000000000e+00
126	1.270000000000000e-11
	0.000000000000000e+00
	1.904248057511870e-07
	0.000000000000000e+00
127	1.280000000000000e-11
	0.000000000000000e+00
	1.753813379861607e-07
	0.000000000000000e+00
128	1.290000000000000e-11
	0.000000000000000e+00
	1.566246081079589e-07
	0.000000000000000e+00
129	1.300000000000000e-11
	0.000000000000000e+00
	1.353446925736735e-07
	0.000000000000000e+00
130	1.310000000000000e-11
	0.000000000000000e+00
	1.126579541039278e-07
	0.000000000000000e+00
131	1.320000000000000e-11
	0.000000000000000e+00
	8.958017524240917e-08
	0.000000000000000e+00
132	1.330000000000000e-11
	0.000000000000000e+00
	6.700400105190177e-08
	0.000000000000000e+00
133	1.340000000000000e-11
	0.000000000000000e+00
	4.568154653908364e-08
	0.000000000000000e+00
134	1.350000000000000e-11
	0.000000000000000e+00
	2.621293687005564e-08
	0.000000000000000e+00
135	1.360000000000000e-11
	0.000000000000000e+00
	9.041305220482209e-09
	0.000000000000000e+00
136	1.370000000000000e-11
	0.000000000000000e+00
	-5.545583883688220e-09
	0.000000000000000e+00
137	1.380000000000000e-11
	0.000000000000000e+00
	-1.740733501130037e-08
	0.000000000000000e+00
138	1.390000000000000e-11
	0.000000000000000e+00
	-2.653721568523915e-08
	0.000000000000000e+00
139	1.400000000000000e-11
	0.000000000000000e+00
	-3.304378428546170e-08
	0.000000000000000e+00
140	1.410000000000000e-11
	0.000000000000000e+00
	-3.712917215329446e-08
	0.000000000000000e+00
141	1.420000000000000e-11
	0.000000000000000e+00
	-3.906550045616096e-08
	0.000000000000000e+00
142	1.430000000000000e-11
	0.000000000000000e+00
	-3.917094222039729e-08
	0.000000000000000e+00
143	1.440000000000000e-11
	0.000000000000000e+00
	-3.778684362726935e-08
	0.000000000000000e+00
144	1.450000000000000e-11
	0.000000000000000e+00
	-3.525711417137466e-08
	0.000000000000000e+00
145	1.460000000000000e-11
	0.000000000000000e+00
	-3.191081061637456e-08
	0.000000000000000e+00
146	1.470000000000000e-11
	0.000000000000000e+00
	-2.804850862774818e-08
	0.000000000000000e+00
147	1.480000000000000e-11
	0.000000000000000e+00
	-2.393271364940014e-08
	0.000000000000000e+00
148	1.490000000000000e-11
	0.000000000000000e+00
	-1.978224150454061e-08
	0.000000000000000e+00
149	1.500000000000001e-11
	0.000000000000000e+00
	-1.577022597164873e-08
	0.000000000000000e+00
150	1.510000000000001e-11
	0.000000000000000e+00
	-1.202520385728382e-08
	0.000000000000000e+00
151	1.520000000000001e-11
	0.000000000000000e+00
	-8.634597545965088e-09
	0.000000000000000e+00
152	1.530000000000001e-11
	0.000000000000000e+00
	-5.649861531682405e-09
	0.000000000000000e+00
153	1.540000000000001e-11
	0.000000000000000e+00
	-3.092576192542983e-09
	0.000000000000000e+00
154	1.550000000000001e-11
	0.000000000000000e+00
	-9.608463038115127e-10
	0.000000000000000e+00
155	1.560000000000002e-11
	0.000000000000000e+00
	7.645229982280971e-10
	0.000000000000000e+00
156	1.570000000000002e-11
	0.000000000000000e+00
	2.114461841240056e-09
	0.000000000000000e+00
157	1.580000000000002e-11
	0.000000000000000e+00
	3.126927898532253e-09
	0.000000000000000e+00
158	1.590000000000002e-11
	0.000000000000000e+00
	3.843165641335145e-09
	0.000000000000000e+00
159	1.600000000000002e-11
	0.000000000000000e+00
	4.304928713995673e-09
	0.000000000000000e+00
160	1.610000000000002e-11
	0.000000000000000e+00
	4.552575201219553e-09
	0.000000000000000e+00
161	1.620000000000003e-11
	0.000000000000000e+00
	4.623889881777991e-09
	0.000000000000000e+00
162	1.630000000000003e-11
	0.000000000000000e+00
	4.553461688608283e-09
	0.000000000000000e+00
163	1.640000000000003e-11
	0.000000000000000e+00
	4.372444549639690e-09
	0.000000000000000e+00
164	1.650000000000003e-11
	0.000000000000000e+00
	4.108549522406466e-09
	0.000000000000000e+00
165	1.660000000000003e-11
	0.000000000000000e+00
	3.786148600177818e-09
	0.000000000000000e+00
166	1.670000000000003e-11
	0.000000000000000e+00
	3.426408680881623e-09
	0.000000000000000e+00
167	1.680000000000004e-11
	0.000000000000000e+00
	3.047411684858057e-09
	0.000000000000000e+00
168	1.690000000000004e-11
	0.000000000000000e+00
	2.664248815026725e-09
	0.000000000000000e+00
169	1.700000000000004e-11
	0.000000000000000e+00
	2.289100329888932e-09
	0.000000000000000e+00
170	1.710000000000004e-11
	0.000000000000000e+00
	1.931325588608972e-09
	0.000000000000000e+00
171	1.720000000000004e-11
	0.000000000000000e+00
	1.597591794291712e-09
	0.000000000000000e+00
172	1.730000000000004e-11
	0.000000000000000e+00
	1.292065362985488e-09
	0.000000000000000e+00
173	1.740000000000004e-11
	0.000000000000000e+00
	1.016679594071187e-09
	0.000000000000000e+00
174	1.750000000000005e-11
	0.000000000000000e+00
	7.714791108877962e-10
	0.000000000000000e+00
175	1.760000000000005e-11
	0.000000000000000e+00
	5.550281266244331e-10
	0.000000000000000e+00
176	1.770000000000005e-11
	0.000000000000000e+00
	3.648583066688806e-10
	0.000000000000000e+00
177	1.780000000000005e-11
	0.000000000000000e+00
	1.979245200659201e-10
	0.000000000000000e+00
178	1.790000000000005e-11
	0.000000000000000e+00
	5.103398933102168e-11
	0.000000000000000e+00
179	1.800000000000005e-11
	0.000000000000000e+00
	-7.878364242271309e-11
	0.000000000000000e+00
180	1.810000000000006e-11
	0.000000000000000e+00
	-1.939916007627311e-10
	0.000000000000000e+00
181	1.820000000000006e-11
	0.000000000000000e+00
	-2.963636100594371e-10
	0.000000000000000e+00
182	1.830000000000006e-11
	0.000000000000000e+00
	-3.869098995790031e-10
	0.000000000000000e+00
183	1.840000000000006e-11
	0.000000000000000e+00
	-4.659065127496318e-10
	0.000000000000000e+00
184	1.850000000000006e-11
	0.000000000000000e+00
	-5.330129575885935e-10
	0.000000000000000e+00
185	1.860000000000006e-11
	0.000000000000000e+00
	-5.874556575414600e-10
	0.000000000000000e+00
186	1.870000000000007e-11
	0.000000000000000e+00
	-6.282500936109455e-10
	0.000000000000000e+00
187	1.880000000000007e-11
	0.000000000000000e+00
	-6.544332370366154e-10
	0.000000000000000e+00
188	1.890000000000007e-11
	0.000000000000000e+00
	-6.652797059937552e-10
	0.000000000000000e+00
189	1.900000000000007e-11
	0.000000000000000e+00
	-6.604795372731891e-10
	0.000000000000000e+00
190	1.910000000000007e-11
	0.000000000000000e+00
	-6.402617906225550e-10
	0.000000000000000e+00
191	1.920000000000007e-11
	0.000000000000000e+00
	-6.054555123125686e-10
	0.000000000000000e+00
192	1.930000000000007e-11
	0.000000000000000e+00
	-5.574869755587100e-10
	0.000000000000000e+00
193	1.940000000000008e-11
	0.000000000000000e+00
	-4.983187814696852e-10
	0.000000000000000e+00
194	1.950000000000008e-11
	0.000000000000000e+00
	-4.303417126456396e-10
	0.000000000000000e+00
195	1.960000000000008e-11
	0.000000000000000e+00
	-3.562337773094051e-10
	0.000000000000000e+00
196	1.970000000000008e-11
	0.000000000000000e+00
	-2.788025033276164e-10
	0.000000000000000e+00
197	1.980000000000008e-11
	0.000000000000000e+00
	-2.008263098510123e-10
	0.000000000000000e+00
198	1.990000000000008e-11
	0.000000000000000e+00
	-1.249089651361912e-10
	0.000000000000000e+00
199	2.000000000000009e-11
	0.000000000000000e+00
	-5.335813659478858e-11
	0.000000000000000e+00
200	2.010000000000009e-11
	0.000000000000000e+00
	1.190466653417507e-11
	0.000000000000000e+00
201	2.020000000000009e-11
	0.000000000000000e+00
	6.939937556483401e-11
	0.000000000000000e+00
202	2.030000000000009e-11
	0.000000000000000e+00
	1.181081727287649e-10
	0.000000000000000e+00
203	2.040000000000009e-11
	0.000000000000000e+00
	1.574652288454806e-10
	0.000000000000000e+00
204	2.050000000000009e-11
	0.000000000000000e+00
	1.873210352139126e-10
	0.000000000000000e+00
205	2.060000000000010e-11
	0.000000000000000e+00
	2.078883239033858e-10
	0.000000000000000e+00
206	2.070000000000010e-11
	0.000000000000000e+00
	2.196769658569959e-10
	0.000000000000000e+00
207	2.080000000000010e-11
	0.000000000000000e+00
	2.234248105722361e-10
	0.000000000000000e+00
208	2.090000000000010e-11
	0.000000000000000e+00
	2.200303705190824e-10
	0.000000000000000e+00
209	2.100000000000010e-11
	0.000000000000000e+00
	2.104917850867142e-10
	0.000000000000000e+00
210	2.110000000000010e-11
	0.000000000000000e+00
	1.958548599767456e-10
	0.000000000000000e+00
211	2.120000000000011e-11
	0.000000000000000e+00
	1.771713854947418e-10
	0.000000000000000e+00
212	2.130000000000011e-11
	0.000000000000000e+00
	1.554675669063183e-10
	0.000000000000000e+00
213	2.140000000000011e-11
	0.000000000000000e+00
	1.317213715235884e-10
	0.000000000000000e+00
214	2.150000000000011e-11
	0.000000000000000e+00
	1.068469682684152e-10
	0.000000000000000e+00
215	2.160000000000011e-11
	0.000000000000000e+00
	8.168420618169557e-11
	0.000000000000000e+00
216	2.170000000000011e-11
	0.000000000000000e+00
	5.699119858725718e-11
	0.000000000000000e+00
217	2.180000000000011e-11
	0.000000000000000e+00
	3.343846364086690e-11
	0.000000000000000e+00
218	2.190000000000012e-11
	0.000000000000000e+00
	1.160361554881268e-11
	0.000000000000000e+00
219	2.200000000000012e-11
	0.000000000000000e+00
	-8.033805109919005e-12
	0.000000000000000e+00
220	2.210000000000012e-11
	0.000000000000000e+00
	-2.509722668673802e-11
	0.000000000000000e+00
221	2.220000000000012e-11
	0.000000000000000e+00
	-3.931710839058577e-11
	0.000000000000000e+00
222	2.230000000000012e-11
	0.000000000000000e+00
	-5.053335805776713e-11
	0.000000000000000e+00
223	2.240000000000012e-11
	0.000000000000000e+00
	-5.869523333369051e-11
	0.000000000000000e+00
224	2.250000000000013e-11
	0.000000000000000e+00
	-6.385797145758047e-11
	0.000000000000000e+00
225	2.260000000000013e-11
	0.000000000000000e+00
	-6.617565677251230e-11
	0.000000000000000e+00
226	2.270000000000013e-11
	0.000000000000000e+00
	-6.589019520782614e-11
	0.000000000000000e+00
227	2.280000000000013e-11
	0.000000000000000e+00
	-6.331666421749748e-11
	0.000000000000000e+00
228	2.290000000000013e-11
	0.000000000000000e+00
	-5.882568791245565e-11
	0.000000000000000e+00
229	2.300000000000013e-11
	0.000000000000000e+00
	-5.282380094183247e-11
	0.000000000000000e+00
230	2.310000000000014e-11
	0.000000000000000e+00
	-4.573297489231730e-11
	0.000000000000000e+00
231	2.320000000000014e-11
	0.000000000000000e+00
	-3.797056669671594e-11
	0.000000000000000e+00
232	2.330000000000014e-11
	0.000000000000000e+00
	-2.993090608396092e-11
	0.000000000000000e+00
233	2.340000000000014e-11
	0.000000000000000e+00
	-2.196958008988073e-11
	0.000000000000000e+00
234	2.350000000000014e-11
	0.000000000000000e+00
	-1.439122109520394e-11
	0.000000000000000e+00
235	2.360000000000014e-11
	0.000000000000000e+00
	-7.441293070479453e-12
	0.000000000000000e+00
236	2.370000000000014e-11
	0.000000000000000e+00
	-1.302035120282318e-12
	0.000000000000000e+00
237	2.380000000000015e-11
	0.000000000000000e+00
	3.907602880210034e-12
	0.000000000000000e+00
238	2.390000000000015e-11
	0.000000000000000e+00
	8.128479996882964e-12
	0.000000000000000e+00
239	2.400000000000015e-11
	0.000000000000000e+00
	1.135490328199894e-11
	0.000000000000000e+00
240	2.410000000000015e-11
	0.000000000000000e+00
	1.362618734298409e-11
	0.000000000000000e+00
241	2.420000000000015e-11
	0.000000000000000e+00
	1.501698915727279e-11
	0.000000000000000e+00
242	2.430000000000015e-11
	0.000000000000000e+00
	1.562724714530683e-11
	0.000000000000000e+00
243	2.440000000000016e-11
	0.000000000000000e+00
	1.557246091583264e-11
	0.000000000000000e+00
244	2.450000000000016e-11
	0.000000000000000e+00
	1.497490580953406e-11
	0.000000000000000e+00
245	2.460000000000016e-11
	0.000000000000000e+00
	1.395620464519239e-11
	0.000000000000000e+00
246	2.470000000000016e-11
	0.000000000000000e+00
	1.263149815224556e-11
	0.000000000000000e+00
247	2.480000000000016e-11
	0.000000000000000e+00
	1.110528374601115e-11
	0.000000000000000e+00
248	2.490000000000016e-11
	0.000000000000000e+00
	9.468844665635191e-12
	0.000000000000000e+00
249	2.500000000000017e-11
	0.000000000000000e+00
	7.799078170791379e-12
	0.000000000000000e+00
250	2.510000000000017e-11
	0.000000000000000e+00
	6.158457350429808e-12
	0.000000000000000e+00
251	2.520000000000017e-11
	0.000000000000000e+00
	4.595826746720809e-12
	0.000000000000000e+00
252	2.530000000000017e-11
	0.000000000000000e+00
	3.147733715214047e-12
	0.000000000000000e+00
253	2.540000000000017e-11
	0.000000000000000e+00
	1.840027533205827e-12
	0.000000000000000e+00
254	2.550000000000017e-11
	0.000000000000000e+00
	6.895089433421973e-13
	0.000000000000000e+00
255	2.560000000000018e-11
	0.000000000000000e+00
	-2.945259329644148e-13
	0.000000000000000e+00
256	2.570000000000018e-11
	0.000000000000000e+00
	-1.108940588428281e-12
	0.000000000000000e+00
257	2.580000000000018e-11
	0.000000000000000e+00
	-1.755647800988167e-12
	0.000000000000000e+00
258	2.590000000000018e-11
	0.000000000000000e+00
	-2.240723665717687e-12
	0.000000000000000e+00
259	2.600000000000018e-11
	0.000000000000000e+00
	-2.573703710867845e-12
	0.000000000000000e+00
260	2.610000000000018e-11
	0.000000000000000e+00
	-2.767001958174081e-12
	0.000000000000000e+00
261	2.620000000000018e-11
	0.000000000000000e+00
	-2.835391214957180e-12
	0.000000000000000e+00
262	2.630000000000019e-11
	0.000000000000000e+00
	-2.795491463265016e-12
	0.000000000000000e+00
263	2.640000000000019e-11
	0.000000000000000e+00
	-2.665229827351985e-12
	0.000000000000000e+00
264	2.650000000000019e-11
	0.000000000000000e+00
	-2.463256147082629e-12
	0.000000000000000e+00
265	2.660000000000019e-11
	0.000000000000000e+00
	-2.208318754878173e-12
	0.000000000000000e+00
266	2.670000000000019e-11
	0.000000000000000e+00
	-1.918622798720320e-12
	0.000000000000000e+00
267	2.680000000000019e-11
	0.000000000000000e+00
	-1.611205714978500e-12
	0.000000000000000e+00
268	2.690000000000020e-11
	0.000000000000000e+00
	-1.301370584049641e-12
	0.000000000000000e+00
269	2.700000000000020e-11
	0.000000000000000e+00
	-1.002217381108089e-12
	0.000000000000000e+00
270	2.710000000000020e-11
	0.000000000000000e+00
	-7.243054805479491e-13
	0.000000000000000e+00
271	2.720000000000020e-11
	0.000000000000000e+00
	-4.754697581431228e-13
	0.000000000000000e+00
272	2.730000000000020e-11
	0.000000000000000e+00
	-2.607990160617596e-13
	0.000000000000000e+00
273	2.740000000000020e-11
	0.000000000000000e+00
	-8.277090023546647e-14
	0.000000000000000e+00
274	2.750000000000021e-11
	0.000000000000000e+00
	5.847581144321188e-14
	0.000000000000000e+00
275	2.760000000000021e-11
	0.000000000000000e+00
	1.647612607568791e-13
	0.000000000000000e+00
276	2.770000000000021e-11
	0.000000000000000e+00
	2.394137443918972e-13
	0.000000000000000e+00
277	2.780000000000021e-11
	0.000000000000000e+00
	2.867878804366830e-13
	0.000000000000000e+00
278	2.790000000000021e-11
	0.000000000000000e+00
	3.117904486576020e-13
	0.000000000000000e+00
279	2.800000000000021e-11
	0.000000000000000e+00
	3.194478597178967e-13
	0.000000000000000e+00
280	2.810000000000022e-11
	0.000000000000000e+00
	3.145418233062420e-13
	0.000000000000000e+00
281	2.820000000000022e-11
	0.000000000000000e+00
	3.013307852398440e-13
	0.000000000000000e+00
282	2.830000000000022e-11
	0.000000000000000e+00
	2.833651241735439e-13
	0.000000000000000e+00
283	2.840000000000022e-11
	0.000000000000000e+00
	2.633948996397643e-13
	0.000000000000000e+00
284	2.850000000000022e-11
	0.000000000000000e+00
	2.433612149747199e-13
	0.000000000000000e+00
285	2.860000000000022e-11
	0.000000000000000e+00
	2.244563381811764e-13
	0.000000000000000e+00
286	2.870000000000022e-11
	0.000000000000000e+00
	2.072341112554413e-13
	0.000000000000000e+00
287	2.880000000000023e-11
	0.000000000000000e+00
	1.917509654826204e-13
	0.000000000000000e+00
288	2.890000000000023e-11
	0.000000000000000e+00
	1.777185308206270e-13
	0.000000000000000e+00
289	2.900000000000023e-11
	0.000000000000000e+00
	1.646513489422576e-13
	0.000000000000000e+00
290	2.910000000000023e-11
	0.000000000000000e+00
	1.519968558428553e-13
	0.000000000000000e+00
291	2.920000000000023e-11
	0.000000000000000e+00
	1.392389855002281e-13
	0.000000000000000e+00
292	2.930000000000023e-11
	0.000000000000000e+00
	1.259710779924927e-13
	0.000000000000000e+00
293	2.940000000000023e-11
	0.000000000000000e+00
	1.119378600452940e-13
	0.000000000000000e+00
294	2.950000000000023e-11
	0.000000000000000e+00
	9.704933998038247e-14
	0.000000000000000e+00
295	2.960000000000023e-11
	0.000000000000000e+00
	8.137173658656183e-14
	0.000000000000000e+00
296	2.970000000000022e-11
	0.000000000000000e+00
	6.510194885682339e-14
	0.000000000000000e+00
297	2.980000000000022e-11
	0.000000000000000e+00
	4.853227383546516e-14
	0.000000000000000e+00
298	2.990000000000022e-11
	0.000000000000000e+00
	3.201170857332384e-14
	0.000000000000000e+00
299	3.000000000000022e-11
	0.000000000000000e+00
	1.590898161300123e-14
	0.000000000000000e+00
300	3.010000000000022e-11
	0.000000000000000e+00
	5.809943005956373e-16
	0.000000000000000e+00
301	3.020000000000022e-11
	0.000000000000000e+00
	-1.365104469932247e-14
	0.000000000000000e+00
302	3.030000000000021e-11
	0.000000000000000e+00
	-2.651713229273703e-14
	0.000000000000000e+00
303	3.040000000000021e-11
	0.000000000000000e+00
	-3.780615703669389e-14
	0.000000000000000e+00
304	3.050000000000021e-11
	0.000000000000000e+00
	-4.736706014539602e-14
	0.000000000000000e+00
305	3.060000000000021e-11
	0.000000000000000e+00
	-5.510539564001962e-14
	0.000000000000000e+00
306	3.070000000000021e-11
	0.000000000000000e+00
	-6.097726026609369e-14
	0.000000000000000e+00
307	3.080000000000021e-11
	0.000000000000000e+00
	-6.498233738559226e-14
	0.000000000000000e+00
308	3.090000000000020e-11
	0.000000000000000e+00
	-6.715749860090058e-14
	0.000000000000000e+00
309	3.100000000000020e-11
	0.000000000000000e+00
	-6.757175200771373e-14
	0.000000000000000e+00
310	3.110000000000020e-11
	0.000000000000000e+00
	-6.632286191683314e-14
	0.000000000000000e+00
311	3.120000000000020e-11
	0.000000000000000e+00
	-6.353548010704395e-14
	0.000000000000000e+00
312	3.130000000000020e-11
	0.000000000000000e+00
	-5.936020691890316e-14
	0.000000000000000e+00