Title: ***** SPLITER GATE ******
Date: 04-10-2021 21:57:53
Plotname: transient analysis
Flags: real
No. Variables: 4       
No. Points: 6001    
Variables: 0 time time
 1 V(1,0) voltage
 2 V(2,0) voltage
 3 V(3,0) voltage
Values:
0	0.000000000000000e+00
	0.000000000000000e+00
	0.000000000000000e+00
	0.000000000000000e+00
1	1.000000000000000e-13
	0.000000000000000e+00
	5.885843355508189e-07
	5.885843355508189e-07
2	2.000000000000000e-13
	0.000000000000000e+00
	1.975465231583247e-06
	1.975465231583247e-06
3	3.000000000000000e-13
	0.000000000000000e+00
	4.531299582242812e-06
	4.531299582242812e-06
4	4.000000000000000e-13
	0.000000000000000e+00
	7.727838402431399e-06
	7.727838402431399e-06
5	5.000000000000000e-13
	0.000000000000000e+00
	1.136245998077491e-05
	1.136245998077491e-05
6	6.000000000000000e-13
	0.000000000000000e+00
	1.523533871144503e-05
	1.523533871144503e-05
7	6.999999999999999e-13
	0.000000000000000e+00
	1.915697635666946e-05
	1.915697635666946e-05
8	7.999999999999999e-13
	0.000000000000000e+00
	2.295242572084237e-05
	2.295242572084237e-05
9	8.999999999999999e-13
	0.000000000000000e+00
	2.646608782989454e-05
	2.646608782989454e-05
10	1.000000000000000e-12
	0.000000000000000e+00
	2.956668845194067e-05
	2.956668845194067e-05
11	1.100000000000000e-12
	0.000000000000000e+00
	3.215189344259801e-05
	3.215189344259801e-05
12	1.200000000000000e-12
	0.000000000000000e+00
	3.415195073842125e-05
	3.415195073842125e-05
13	1.300000000000000e-12
	0.000000000000000e+00
	3.553179693775833e-05
	3.553179693775833e-05
14	1.400000000000000e-12
	0.000000000000000e+00
	3.629121848036889e-05
	3.629121848036889e-05
15	1.500000000000000e-12
	0.000000000000000e+00
	3.646287878335080e-05
	3.646287878335080e-05
16	1.600000000000000e-12
	0.000000000000000e+00
	3.610827353719221e-05
	3.610827353719221e-05
17	1.700000000000000e-12
	0.000000000000000e+00
	3.531191659302193e-05
	3.531191659302193e-05
18	1.800000000000000e-12
	0.000000000000000e+00
	3.417425406776340e-05
	3.417425406776340e-05
19	1.900000000000000e-12
	0.000000000000000e+00
	3.280393020488136e-05
	3.280393020488136e-05
20	2.000000000000000e-12
	0.000000000000000e+00
	3.131007337033289e-05
	3.131007337033289e-05
21	2.100000000000000e-12
	0.000000000000000e+00
	2.979523510030168e-05
	2.979523510030168e-05
22	2.200000000000000e-12
	0.000000000000000e+00
	2.834951085293363e-05
	2.834951085293363e-05
23	2.300000000000000e-12
	0.000000000000000e+00
	2.704621721608561e-05
	2.704621721608561e-05
24	2.400000000000000e-12
	0.000000000000000e+00
	2.593931997763859e-05
	2.593931997763859e-05
25	2.500000000000000e-12
	0.000000000000000e+00
	2.506262432781992e-05
	2.506262432781992e-05
26	2.600000000000000e-12
	0.000000000000000e+00
	2.443057362612893e-05
	2.443057362612893e-05
27	2.700000000000000e-12
	0.000000000000000e+00
	2.404037294271128e-05
	2.404037294271128e-05
28	2.800000000000000e-12
	0.000000000000000e+00
	2.387506821080446e-05
	2.387506821080446e-05
29	2.900000000000000e-12
	0.000000000000000e+00
	2.390717506357810e-05
	2.390717506357810e-05
30	3.000000000000000e-12
	0.000000000000000e+00
	2.410246097200415e-05
	2.410246097200415e-05
31	3.100000000000000e-12
	0.000000000000000e+00
	2.442353284583420e-05
	2.442353284583420e-05
32	3.200000000000000e-12
	0.000000000000000e+00
	2.483295901417110e-05
	2.483295901417110e-05
33	3.300000000000000e-12
	0.000000000000000e+00
	2.529574691774539e-05
	2.529574691774539e-05
34	3.400000000000000e-12
	0.000000000000000e+00
	2.578109334351903e-05
	2.578109334351903e-05
35	3.500000000000000e-12
	0.000000000000000e+00
	2.626341151047714e-05
	2.626341151047714e-05
36	3.600000000000000e-12
	0.000000000000000e+00
	2.672271027307847e-05
	2.672271027307847e-05
37	3.700000000000000e-12
	0.000000000000000e+00
	2.714444990344612e-05
	2.714444990344612e-05
38	3.800000000000000e-12
	0.000000000000000e+00
	2.751902452080088e-05
	2.751902452080088e-05
39	3.900000000000000e-12
	0.000000000000000e+00
	2.784102456066073e-05
	2.784102456066073e-05
40	4.000000000000000e-12
	0.000000000000000e+00
	2.810841750611530e-05
	2.810841750611530e-05
41	4.100000000000000e-12
	0.000000000000000e+00
	2.832175685017659e-05
	2.832175685017659e-05
42	4.200000000000000e-12
	0.000000000000000e+00
	2.848349401393763e-05
	2.848349401393763e-05
43	4.300000000000000e-12
	0.000000000000000e+00
	2.859743159837158e-05
	2.859743159837158e-05
44	4.400000000000000e-12
	0.000000000000000e+00
	2.866832386141569e-05
	2.866832386141569e-05
45	4.500000000000000e-12
	0.000000000000000e+00
	2.870160523734098e-05
	2.870160523734098e-05
46	4.600000000000000e-12
	0.000000000000000e+00
	2.870321196524109e-05
	2.870321196524109e-05
47	4.700000000000000e-12
	0.000000000000000e+00
	2.867945576871728e-05
	2.867945576871728e-05
48	4.800000000000000e-12
	0.000000000000000e+00
	2.863691095283834e-05
	2.863691095283834e-05
49	4.900000000000000e-12
	0.000000000000000e+00
	2.858228518191686e-05
	2.858228518191686e-05
50	5.000000000000000e-12
	0.000000000000000e+00
	2.852225694889766e-05
	2.852225694889766e-05
51	5.100000000000000e-12
	0.000000000000000e+00
	2.787469228708668e-05
	2.787469228708668e-05
52	5.200000000000000e-12
	0.000000000000000e+00
	2.616540521918093e-05
	2.616540521918093e-05
53	5.300000000000000e-12
	0.000000000000000e+00
	2.360917204186012e-05
	2.360917204186012e-05
54	5.400000000000000e-12
	0.000000000000000e+00
	2.041109759243368e-05
	2.041109759243368e-05
55	5.500000000000000e-12
	0.000000000000000e+00
	1.677099948291879e-05
	1.677099948291879e-05
56	5.600000000000000e-12
	0.000000000000000e+00
	1.288073339303588e-05
	1.288073339303588e-05
57	5.700000000000000e-12
	0.000000000000000e+00
	8.921490472993923e-06
	8.921490472993923e-06
58	5.800000000000000e-12
	0.000000000000000e+00
	5.060599187003768e-06
	5.060599187003768e-06
59	5.899999999999999e-12
	0.000000000000000e+00
	1.447775266267292e-06
	1.447775266267292e-06
60	5.999999999999999e-12
	0.000000000000000e+00
	-1.788955299295201e-06
	-1.788955299295201e-06
61	6.099999999999999e-12
	0.000000000000000e+00
	-4.547234611145245e-06
	-4.547234611145245e-06
62	6.199999999999999e-12
	0.000000000000000e+00
	-6.753728033087193e-06
	-6.753728033087193e-06
63	6.299999999999999e-12
	0.000000000000000e+00
	-8.366337956872957e-06
	-8.366337956872957e-06
64	6.399999999999999e-12
	0.000000000000000e+00
	-9.374857851319655e-06
	-9.374857851319655e-06
65	6.499999999999999e-12
	0.000000000000000e+00
	-9.799818478528875e-06
	-9.799818478528875e-06
66	6.599999999999999e-12
	0.000000000000000e+00
	-9.689487770076415e-06
	-9.689487770076415e-06
67	6.699999999999999e-12
	0.000000000000000e+00
	-9.115201302228228e-06
	-9.115201302228228e-06
68	6.799999999999999e-12
	0.000000000000000e+00
	-8.165390121824110e-06
	-8.165390121824110e-06
69	6.899999999999999e-12
	0.000000000000000e+00
	-6.938811683086023e-06
	-6.938811683086023e-06
70	6.999999999999999e-12
	0.000000000000000e+00
	-5.537561973891295e-06
	-5.537561973891295e-06
71	7.099999999999999e-12
	0.000000000000000e+00
	-4.060447320547360e-06
	-4.060447320547360e-06
72	7.199999999999999e-12
	0.000000000000000e+00
	-2.597228000055137e-06
	-2.597228000055137e-06
73	7.300000000000000e-12
	0.000000000000000e+00
	-1.224126342769350e-06
	-1.224126342769350e-06
74	7.400000000000000e-12
	0.000000000000000e+00
	-8.388537821320863e-10
	-8.388537821320863e-10
75	7.500000000000000e-12
	0.000000000000000e+00
	1.030873242483063e-06
	1.030873242483063e-06
76	7.600000000000000e-12
	0.000000000000000e+00
	1.847096862756947e-06
	1.847096862756947e-06
77	7.700000000000000e-12
	0.000000000000000e+00
	2.440395203476276e-06
	2.440395203476276e-06
78	7.800000000000000e-12
	0.000000000000000e+00
	2.817454975746426e-06
	2.817454975746426e-06
79	7.900000000000000e-12
	0.000000000000000e+00
	2.996104707806160e-06
	2.996104707806160e-06
80	8.000000000000000e-12
	0.000000000000000e+00
	3.002060848076296e-06
	3.002060848076296e-06
81	8.100000000000000e-12
	0.000000000000000e+00
	2.865725356604467e-06
	2.865725356604467e-06
82	8.200000000000000e-12
	0.000000000000000e+00
	2.619296929315188e-06
	2.619296929315188e-06
83	8.300000000000000e-12
	0.000000000000000e+00
	2.294379276344779e-06
	2.294379276344779e-06
84	8.400000000000000e-12
	0.000000000000000e+00
	1.920185594035077e-06
	1.920185594035077e-06
85	8.500000000000000e-12
	0.000000000000000e+00
	1.522358978902399e-06
	1.522358978902399e-06
86	8.600000000000000e-12
	0.000000000000000e+00
	1.122362216309144e-06
	1.122362216309144e-06
87	8.700000000000000e-12
	0.000000000000000e+00
	7.373424237743312e-07
	7.373424237743312e-07
88	8.800000000000000e-12
	0.000000000000000e+00
	3.803486535017770e-07
	3.803486535017770e-07
89	8.900000000000000e-12
	0.000000000000000e+00
	6.077313324458750e-08
	6.077313324458750e-08
90	9.000000000000000e-12
	0.000000000000000e+00
	-2.151035802926717e-07
	-2.151035802926717e-07
91	9.100000000000000e-12
	0.000000000000000e+00
	-4.435611421295782e-07
	-4.435611421295782e-07
92	9.200000000000000e-12
	0.000000000000000e+00
	-6.229498710699839e-07
	-6.229498710699839e-07
93	9.300000000000000e-12
	0.000000000000000e+00
	-7.532999075542675e-07
	-7.532999075542675e-07
94	9.400000000000000e-12
	0.000000000000000e+00
	-8.360369824968037e-07
	-8.360369824968037e-07
95	9.500000000000000e-12
	0.000000000000000e+00
	-8.737897769661677e-07
	-8.737897769661677e-07
96	9.599999999999999e-12
	0.000000000000000e+00
	-8.702589305334184e-07
	-8.702589305334184e-07
97	9.699999999999999e-12
	0.000000000000000e+00
	-8.301114465170814e-07
	-8.301114465170814e-07
98	9.799999999999999e-12
	0.000000000000000e+00
	-7.588658725875033e-07
	-7.588658725875033e-07
99	9.899999999999999e-12
	0.000000000000000e+00
	-6.627415418276376e-07
	-6.627415418276376e-07
100	9.999999999999999e-12
	0.000000000000000e+00
	-5.484570641255027e-07
	-5.484570641255027e-07
101	1.010000000000000e-11
	0.000000000000000e+00
	-4.229766684420183e-07
	-4.229766684420183e-07
102	1.020000000000000e-11
	0.000000000000000e+00
	-2.932155772011150e-07
	-2.932155772011150e-07
103	1.030000000000000e-11
	0.000000000000000e+00
	-1.657254614181241e-07
	-1.657254614181241e-07
104	1.040000000000000e-11
	0.000000000000000e+00
	-4.638694181763421e-08
	-4.638694181763421e-08
105	1.050000000000000e-11
	0.000000000000000e+00
	5.986244450766477e-08
	5.986244450766477e-08
106	1.060000000000000e-11
	0.000000000000000e+00
	1.492392146454550e-07
	1.492392146454550e-07
107	1.070000000000000e-11
	0.000000000000000e+00
	2.192445840592332e-07
	2.192445840592332e-07
108	1.080000000000000e-11
	0.000000000000000e+00
	2.687042004651063e-07
	2.687042004651063e-07
109	1.090000000000000e-11
	0.000000000000000e+00
	2.977160514216748e-07
	2.977160514216748e-07
110	1.100000000000000e-11
	0.000000000000000e+00
	3.075149423137765e-07
	3.075149423137765e-07
111	1.110000000000000e-11
	0.000000000000000e+00
	3.002697451946848e-07
	3.002697451946848e-07
112	1.120000000000000e-11
	0.000000000000000e+00
	2.788350786599082e-07
	2.788350786599082e-07
113	1.130000000000000e-11
	0.000000000000000e+00
	2.464817472606231e-07
	2.464817472606231e-07
114	1.140000000000000e-11
	0.000000000000000e+00
	2.066300966846317e-07
	2.066300966846317e-07
115	1.150000000000000e-11
	0.000000000000000e+00
	1.626077344127398e-07
	1.626077344127398e-07
116	1.160000000000000e-11
	0.000000000000000e+00
	1.174484044529536e-07
	1.174484044529536e-07
117	1.170000000000000e-11
	0.000000000000000e+00
	7.374293576669307e-08
	7.374293576669307e-08
118	1.180000000000000e-11
	0.000000000000000e+00
	3.354690756156348e-08
	3.354690756156348e-08
119	1.190000000000000e-11
	0.000000000000000e+00
	-1.656260191439182e-09
	-1.656260191439182e-09
120	1.200000000000000e-11
	0.000000000000000e+00
	-3.094306284769011e-08
	-3.094306284769011e-08
121	1.210000000000000e-11
	0.000000000000000e+00
	-5.389839071800758e-08
	-5.389839071800758e-08
122	1.220000000000000e-11
	0.000000000000000e+00
	-7.053663628359651e-08
	-7.053663628359651e-08
123	1.230000000000000e-11
	0.000000000000000e+00
	-8.120779157813014e-08
	-8.120779157813014e-08
124	1.240000000000000e-11
	0.000000000000000e+00
	-8.649997927804716e-08
	-8.649997927804716e-08
125	1.250000000000000e-11
	0.000000000000000e+00
	-8.714788822040672e-08
	-8.714788822040672e-08
126	1.260000000000000e-11
	0.000000000000000e+00
	-8.395395573866914e-08
	-8.395395573866914e-08
127	1.270000000000000e-11
	0.000000000000000e+00
	-7.772626892859250e-08
	-7.772626892859250e-08
128	1.280000000000000e-11
	0.000000000000000e+00
	-6.923442100668256e-08
	-6.923442100668256e-08
129	1.290000000000000e-11
	0.000000000000000e+00
	-5.918225599809450e-08
	-5.918225599809450e-08
130	1.300000000000000e-11
	0.000000000000000e+00
	-4.819476146585595e-08
	-4.819476146585595e-08
131	1.310000000000000e-11
	0.000000000000000e+00
	-3.681541061826902e-08
	-3.681541061826902e-08
132	1.320000000000000e-11
	0.000000000000000e+00
	-2.550999381636021e-08
	-2.550999381636021e-08
133	1.330000000000000e-11
	0.000000000000000e+00
	-1.467331213860832e-08
	-1.467331213860832e-08
134	1.340000000000000e-11
	0.000000000000000e+00
	-4.635870832755094e-09
	-4.635870832755094e-09
135	1.350000000000000e-11
	0.000000000000000e+00
	4.331281477379930e-09
	4.331281477379930e-09
136	1.360000000000000e-11
	0.000000000000000e+00
	1.201435992384706e-08
	1.201435992384706e-08
137	1.370000000000000e-11
	0.000000000000000e+00
	1.825713647046175e-08
	1.825713647046175e-08
138	1.380000000000000e-11
	0.000000000000000e+00
	2.296283634959486e-08
	2.296283634959486e-08
139	1.390000000000000e-11
	0.000000000000000e+00
	2.609633207965337e-08
	2.609633207965337e-08
140	1.400000000000000e-11
	0.000000000000000e+00
	2.768522066224356e-08
	2.768522066224356e-08
141	1.410000000000000e-11
	0.000000000000000e+00
	2.781854407119636e-08
	2.781854407119636e-08
142	1.420000000000000e-11
	0.000000000000000e+00
	2.664230369406436e-08
	2.664230369406436e-08
143	1.430000000000000e-11
	0.000000000000000e+00
	2.435143761921839e-08
	2.435143761921839e-08
144	1.440000000000000e-11
	0.000000000000000e+00
	2.117848109503288e-08
	2.117848109503288e-08
145	1.450000000000000e-11
	0.000000000000000e+00
	1.737962825985549e-08
	1.737962825985549e-08
146	1.460000000000000e-11
	0.000000000000000e+00
	1.321928889694919e-08
	1.321928889694919e-08
147	1.470000000000000e-11
	0.000000000000000e+00
	8.954444293146272e-09
	8.954444293146272e-09
148	1.480000000000000e-11
	0.000000000000000e+00
	4.820135836222594e-09
	4.820135836222594e-09
149	1.490000000000000e-11
	0.000000000000000e+00
	1.017279637034560e-09
	1.017279637034560e-09
150	1.500000000000001e-11
	0.000000000000000e+00
	-2.296277380618193e-09
	-2.296277380618193e-09
151	1.510000000000001e-11
	0.000000000000000e+00
	-5.010912805587039e-09
	-5.010912805587039e-09
152	1.520000000000001e-11
	0.000000000000000e+00
	-7.066453502621546e-09
	-7.066453502621546e-09
153	1.530000000000001e-11
	0.000000000000000e+00
	-8.449717230350013e-09
	-8.449717230350013e-09
154	1.540000000000001e-11
	0.000000000000000e+00
	-9.188947352930447e-09
	-9.188947352930447e-09
155	1.550000000000001e-11
	0.000000000000000e+00
	-9.345952794880124e-09
	-9.345952794880124e-09
156	1.560000000000002e-11
	0.000000000000000e+00
	-9.006891090129169e-09
	-9.006891090129169e-09
157	1.570000000000002e-11
	0.000000000000000e+00
	-8.272645914195250e-09
	-8.272645914195250e-09
158	1.580000000000002e-11
	0.000000000000000e+00
	-7.249663569800814e-09
	-7.249663569800814e-09
159	1.590000000000002e-11
	0.000000000000000e+00
	-6.041947714542341e-09
	-6.041947714542341e-09
160	1.600000000000002e-11
	0.000000000000000e+00
	-4.744696774348547e-09
	-4.744696774348547e-09
161	1.610000000000002e-11
	0.000000000000000e+00
	-3.439834653432512e-09
	-3.439834653432512e-09
162	1.620000000000003e-11
	0.000000000000000e+00
	-2.193461269812005e-09
	-2.193461269812005e-09
163	1.630000000000003e-11
	0.000000000000000e+00
	-1.055058698232612e-09
	-1.055058698232612e-09
164	1.640000000000003e-11
	0.000000000000000e+00
	-5.814757290160978e-11
	-5.814757290160978e-11
165	1.650000000000003e-11
	0.000000000000000e+00
	7.779950649557784e-10
	7.779950649557784e-10
166	1.660000000000003e-11
	0.000000000000000e+00
	1.445971072835674e-09
	1.445971072835674e-09
167	1.670000000000003e-11
	0.000000000000000e+00
	1.947639190949009e-09
	1.947639190949009e-09
168	1.680000000000004e-11
	0.000000000000000e+00
	2.291561120694083e-09
	2.291561120694083e-09
169	1.690000000000004e-11
	0.000000000000000e+00
	2.490752577133992e-09
	2.490752577133992e-09
170	1.700000000000004e-11
	0.000000000000000e+00
	2.560878398354135e-09
	2.560878398354135e-09
171	1.710000000000004e-11
	0.000000000000000e+00
	2.518937499497444e-09
	2.518937499497444e-09
172	1.720000000000004e-11
	0.000000000000000e+00
	2.382405525856582e-09
	2.382405525856582e-09
173	1.730000000000004e-11
	0.000000000000000e+00
	2.168747540626986e-09
	2.168747540626986e-09
174	1.740000000000004e-11
	0.000000000000000e+00
	1.895182938449340e-09
	1.895182938449340e-09
175	1.750000000000005e-11
	0.000000000000000e+00
	1.578579150227141e-09
	1.578579150227141e-09
176	1.760000000000005e-11
	0.000000000000000e+00
	1.235365648907911e-09
	1.235365648907911e-09
177	1.770000000000005e-11
	0.000000000000000e+00
	8.813892454615674e-10
	8.813892454615674e-10
178	1.780000000000005e-11
	0.000000000000000e+00
	5.316686865416153e-10
	5.316686865416153e-10
179	1.790000000000005e-11
	0.000000000000000e+00
	2.000442531811464e-10
	2.000442531811464e-10
180	1.800000000000005e-11
	0.000000000000000e+00
	-1.012494462475578e-10
	-1.012494462475578e-10
181	1.810000000000006e-11
	0.000000000000000e+00
	-3.620362069629504e-10
	-3.620362069629504e-10
182	1.820000000000006e-11
	0.000000000000000e+00
	-5.746137622807861e-10
	-5.746137622807861e-10
183	1.830000000000006e-11
	0.000000000000000e+00
	-7.340698758847677e-10
	-7.340698758847677e-10
184	1.840000000000006e-11
	0.000000000000000e+00
	-8.384476662937557e-10
	-8.384476662937557e-10
185	1.850000000000006e-11
	0.000000000000000e+00
	-8.887274511559406e-10
	-8.887274511559406e-10
186	1.860000000000006e-11
	0.000000000000000e+00
	-8.886152157837117e-10
	-8.886152157837117e-10
187	1.870000000000007e-11
	0.000000000000000e+00
	-8.441511784554785e-10
	-8.441511784554785e-10
188	1.880000000000007e-11
	0.000000000000000e+00
	-7.631725429905064e-10
	-7.631725429905064e-10
189	1.890000000000007e-11
	0.000000000000000e+00
	-6.546798425621423e-10
	-6.546798425621423e-10
190	1.900000000000007e-11
	0.000000000000000e+00
	-5.281647265430808e-10
	-5.281647265430808e-10
191	1.910000000000007e-11
	0.000000000000000e+00
	-3.929581390674301e-10
	-3.929581390674301e-10
192	1.920000000000007e-11
	0.000000000000000e+00
	-2.576521046971575e-10
	-2.576521046971575e-10
193	1.930000000000007e-11
	0.000000000000000e+00
	-1.296371082533387e-10
	-1.296371082533387e-10
194	1.940000000000008e-11
	0.000000000000000e+00
	-1.478221254849416e-11
	-1.478221254849416e-11
195	1.950000000000008e-11
	0.000000000000000e+00
	8.273128504121409e-11
	8.273128504121409e-11
196	1.960000000000008e-11
	0.000000000000000e+00
	1.604276407934870e-10
	1.604276407934870e-10
197	1.970000000000008e-11
	0.000000000000000e+00
	2.174243606718204e-10
	2.174243606718204e-10
198	1.980000000000008e-11
	0.000000000000000e+00
	2.542181828439325e-10
	2.542181828439325e-10
199	1.990000000000008e-11
	0.000000000000000e+00
	2.724033996641329e-10
	2.724033996641329e-10
200	2.000000000000009e-11
	0.000000000000000e+00
	2.743579180128747e-10
	2.743579180128747e-10
201	2.010000000000009e-11
	0.000000000000000e+00
	2.629299089499641e-10
	2.629299089499641e-10
202	2.020000000000009e-11
	0.000000000000000e+00
	2.411522908716090e-10
	2.411522908716090e-10
203	2.030000000000009e-11
	0.000000000000000e+00
	2.120047030116107e-10
	2.120047030116107e-10
204	2.040000000000009e-11
	0.000000000000000e+00
	1.782342146738875e-10
	1.782342146738875e-10
205	2.050000000000009e-11
	0.000000000000000e+00
	1.422378638884141e-10
	1.422378638884141e-10
206	2.060000000000010e-11
	0.000000000000000e+00
	1.060031171715179e-10
	1.060031171715179e-10
207	2.070000000000010e-11
	0.000000000000000e+00
	7.109710509350586e-11
	7.109710509350586e-11
208	2.080000000000010e-11
	0.000000000000000e+00
	3.869232270500668e-11
	3.869232270500668e-11
209	2.090000000000010e-11
	0.000000000000000e+00
	9.615397667284836e-12
	9.615397667284836e-12
210	2.100000000000010e-11
	0.000000000000000e+00
	-1.559372583828882e-11
	-1.559372583828882e-11
211	2.110000000000010e-11
	0.000000000000000e+00
	-3.662269445813327e-11
	-3.662269445813327e-11
212	2.120000000000011e-11
	0.000000000000000e+00
	-5.333524003615476e-11
	-5.333524003615476e-11
213	2.130000000000011e-11
	0.000000000000000e+00
	-6.573143200392802e-11
	-6.573143200392802e-11
214	2.140000000000011e-11
	0.000000000000000e+00
	-7.392071755088714e-11
	-7.392071755088714e-11
215	2.150000000000011e-11
	0.000000000000000e+00
	-7.810621075602409e-11
	-7.810621075602409e-11
216	2.160000000000011e-11
	0.000000000000000e+00
	-7.857694240447704e-11
	-7.857694240447704e-11
217	2.170000000000011e-11
	0.000000000000000e+00
	-7.570394688544746e-11
	-7.570394688544746e-11
218	2.180000000000011e-11
	0.000000000000000e+00
	-6.993609657744309e-11
	-6.993609657744309e-11
219	2.190000000000012e-11
	0.000000000000000e+00
	-6.179234111803548e-11
	-6.179234111803548e-11
220	2.200000000000012e-11
	0.000000000000000e+00
	-5.184823806168691e-11
	-5.184823806168691e-11
221	2.210000000000012e-11
	0.000000000000000e+00
	-4.071611050639912e-11
	-4.071611050639912e-11
222	2.220000000000012e-11
	0.000000000000000e+00
	-2.901958317676596e-11
	-2.901958317676596e-11
223	2.230000000000012e-11
	0.000000000000000e+00
	-1.736441848269294e-11
	-1.736441848269294e-11
224	2.240000000000012e-11
	0.000000000000000e+00
	-6.308350822602466e-12
	-6.308350822602466e-12
225	2.250000000000013e-11
	0.000000000000000e+00
	3.667072211045909e-12
	3.667072211045909e-12
226	2.260000000000013e-11
	0.000000000000000e+00
	1.217978691720452e-11
	1.217978691720452e-11
227	2.270000000000013e-11
	0.000000000000000e+00
	1.896334600328909e-11
	1.896334600328909e-11
228	2.280000000000013e-11
	0.000000000000000e+00
	2.387442088699021e-11
	2.387442088699021e-11
229	2.290000000000013e-11
	0.000000000000000e+00
	2.689119174019378e-11
	2.689119174019378e-11
230	2.300000000000013e-11
	0.000000000000000e+00
	2.810313046957772e-11
	2.810313046957772e-11
231	2.310000000000014e-11
	0.000000000000000e+00
	2.769354585354867e-11
	2.769354585354867e-11
232	2.320000000000014e-11
	0.000000000000000e+00
	2.591690351890572e-11
	2.591690351890572e-11
233	2.330000000000014e-11
	0.000000000000000e+00
	2.307329812819559e-11
	2.307329812819559e-11
234	2.340000000000014e-11
	0.000000000000000e+00
	1.948252491873569e-11
	1.948252491873569e-11
235	2.350000000000014e-11
	0.000000000000000e+00
	1.545999441597627e-11
	1.545999441597627e-11
236	2.360000000000014e-11
	0.000000000000000e+00
	1.129631144527443e-11
	1.129631144527443e-11
237	2.370000000000014e-11
	0.000000000000000e+00
	7.241770451713842e-12
	7.241770451713842e-12
238	2.380000000000015e-11
	0.000000000000000e+00
	3.496386445184483e-12
	3.496386445184483e-12
239	2.390000000000015e-11
	0.000000000000000e+00
	2.054644336311934e-13
	2.054644336311934e-13
240	2.400000000000015e-11
	0.000000000000000e+00
	-2.539823008466307e-12
	-2.539823008466307e-12
241	2.410000000000015e-11
	0.000000000000000e+00
	-4.697781096359606e-12
	-4.697781096359606e-12
242	2.420000000000015e-11
	0.000000000000000e+00
	-6.268633603127570e-12
	-6.268633603127570e-12
243	2.430000000000015e-11
	0.000000000000000e+00
	-7.285310703891002e-12
	-7.285310703891002e-12
244	2.440000000000016e-11
	0.000000000000000e+00
	-7.803766843723945e-12
	-7.803766843723945e-12
245	2.450000000000016e-11
	0.000000000000000e+00
	-7.893826472019449e-12
	-7.893826472019449e-12
246	2.460000000000016e-11
	0.000000000000000e+00
	-7.631294678210975e-12
	-7.631294678210975e-12
247	2.470000000000016e-11
	0.000000000000000e+00
	-7.091775005045331e-12
	-7.091775005045331e-12
248	2.480000000000016e-11
	0.000000000000000e+00
	-6.346349178057720e-12
	-6.346349178057720e-12
249	2.490000000000016e-11
	0.000000000000000e+00
	-5.459025853494096e-12
	-5.459025853494096e-12
250	2.500000000000017e-11
	0.000000000000000e+00
	-4.485680482255837e-12
	-4.485680482255837e-12
251	2.510000000000017e-11
	0.000000000000000e+00
	-3.474097410885980e-12
	-3.474097410885980e-12
252	2.520000000000017e-11
	0.000000000000000e+00
	-2.464688243676310e-12
	-2.464688243676310e-12
253	2.530000000000017e-11
	0.000000000000000e+00
	-1.491488500892497e-12
	-1.491488500892497e-12
254	2.540000000000017e-11
	0.000000000000000e+00
	-5.831112401285563e-13
	-5.831112401285563e-13
255	2.550000000000017e-11
	0.000000000000000e+00
	2.365575366558141e-13
	2.365575366558141e-13
256	2.560000000000018e-11
	0.000000000000000e+00
	9.480217437144105e-13
	9.480217437144105e-13
257	2.570000000000018e-11
	0.000000000000000e+00
	1.536189816146692e-12
	1.536189816146692e-12
258	2.580000000000018e-11
	0.000000000000000e+00
	1.990650357221090e-12
	1.990650357221090e-12
259	2.590000000000018e-11
	0.000000000000000e+00
	2.306065527559075e-12
	2.306065527559075e-12
260	2.600000000000018e-11
	0.000000000000000e+00
	2.482519373727929e-12
	2.482519373727929e-12
261	2.610000000000018e-11
	0.000000000000000e+00
	2.525670577705254e-12
	2.525670577705254e-12
262	2.620000000000018e-11
	0.000000000000000e+00
	2.446596523335284e-12
	2.446596523335284e-12
263	2.630000000000019e-11
	0.000000000000000e+00
	2.261268638127736e-12
	2.261268638127736e-12
264	2.640000000000019e-11
	0.000000000000000e+00
	1.989658865354358e-12
	1.989658865354358e-12
265	2.650000000000019e-11
	0.000000000000000e+00
	1.654532870411627e-12
	1.654532870411627e-12
266	2.660000000000019e-11
	0.000000000000000e+00
	1.280030321385169e-12
	1.280030321385169e-12
267	2.670000000000019e-11
	0.000000000000000e+00
	8.901613095331009e-13
	8.901613095331009e-13
268	2.680000000000019e-11
	0.000000000000000e+00
	5.073569440102832e-13
	5.073569440102832e-13
269	2.690000000000020e-11
	0.000000000000000e+00
	1.512035698833998e-13
	1.512035698833998e-13
270	2.700000000000020e-11
	0.000000000000000e+00
	-1.625348097932214e-13
	-1.625348097932214e-13
271	2.710000000000020e-11
	0.000000000000000e+00
	-4.225366178576538e-13
	-4.225366178576538e-13
272	2.720000000000020e-11
	0.000000000000000e+00
	-6.221570194963949e-13
	-6.221570194963949e-13
273	2.730000000000020e-11
	0.000000000000000e+00
	-7.592892973827428e-13
	-7.592892973827428e-13
274	2.740000000000020e-11
	0.000000000000000e+00
	-8.359014058438499e-13
	-8.359014058438499e-13
275	2.750000000000021e-11
	0.000000000000000e+00
	-8.573234174533910e-13
	-8.573234174533910e-13
276	2.760000000000021e-11
	0.000000000000000e+00
	-8.313772748219987e-13
	-8.313772748219987e-13
277	2.770000000000021e-11
	0.000000000000000e+00
	-7.674445460867624e-13
	-7.674445460867624e-13
278	2.780000000000021e-11
	0.000000000000000e+00
	-6.755619530306380e-13
	-6.755619530306380e-13
279	2.790000000000021e-11
	0.000000000000000e+00
	-5.656188449908290e-13
	-5.656188449908290e-13
280	2.800000000000021e-11
	0.000000000000000e+00
	-4.467103887436164e-13
	-4.467103887436164e-13
281	2.810000000000022e-11
	0.000000000000000e+00
	-3.266763881333917e-13
	-3.266763881333917e-13
282	2.820000000000022e-11
	0.000000000000000e+00
	-2.118324676697557e-13
	-2.118324676697557e-13
283	2.830000000000022e-11
	0.000000000000000e+00
	-1.068801309242672e-13
	-1.068801309242672e-13
284	2.840000000000022e-11
	0.000000000000000e+00
	-1.496649827629775e-14
	-1.496649827629775e-14
285	2.850000000000022e-11
	0.000000000000000e+00
	6.214481301975429e-14
	6.214481301975429e-14
286	2.860000000000022e-11
	0.000000000000000e+00
	1.238342647286485e-13
	1.238342647286485e-13
287	2.870000000000022e-11
	0.000000000000000e+00
	1.703589591572083e-13
	1.703589591572083e-13
288	2.880000000000023e-11
	0.000000000000000e+00
	2.025916758924812e-13
	2.025916758924812e-13
289	2.890000000000023e-11
	0.000000000000000e+00
	2.217922362679009e-13
	2.217922362679009e-13
290	2.900000000000023e-11
	0.000000000000000e+00
	2.294263492878682e-13
	2.294263492878682e-13
291	2.910000000000023e-11
	0.000000000000000e+00
	2.270376648277637e-13
	2.270376648277637e-13
292	2.920000000000023e-11
	0.000000000000000e+00
	2.161701539336446e-13
	2.161701539336446e-13
293	2.930000000000023e-11
	0.000000000000000e+00
	1.983313537737348e-13
	1.983313537737348e-13
294	2.940000000000023e-11
	0.000000000000000e+00
	1.749839343180745e-13
	1.749839343180745e-13
295	2.950000000000023e-11
	0.000000000000000e+00
	1.475516210020767e-13
	1.475516210020767e-13
296	2.960000000000023e-11
	0.000000000000000e+00
	1.174271100296524e-13
	1.174271100296524e-13
297	2.970000000000022e-11
	0.000000000000000e+00
	8.597256221629524e-14
	8.597256221629524e-14
298	2.980000000000022e-11
	0.000000000000000e+00
	5.450704279821016e-14
	5.450704279821016e-14
299	2.990000000000022e-11
	0.000000000000000e+00
	2.427963288512788e-14
	2.427963288512788e-14
300	3.000000000000022e-11
	0.000000000000000e+00
	-3.569515074324278e-15
	-3.569515074324278e-15
301	3.010000000000022e-11
	0.000000000000000e+00
	-2.805497346835281e-14
	-2.805497346835281e-14
302	3.020000000000022e-11
	0.000000000000000e+00
	-4.839195656841330e-14
	-4.839195656841330e-14
303	3.030000000000021e-11
	0.000000000000000e+00
	-6.403544809659041e-14
	-6.403544809659041e-14
304	3.040000000000021e-11
	0.000000000000000e+00
	-7.470621605040582e-14
	-7.470621605040582e-14
305	3.050000000000021e-11
	0.000000000000000e+00
	-8.039950848522451e-14
	-8.039950848522451e-14
306	3.060000000000021e-11
	0.000000000000000e+00
	-8.137429256986317e-14
	-8.137429256986317e-14
307	3.070000000000021e-11
	0.000000000000000e+00
	-7.812344442228093e-14
	-7.812344442228093e-14
308	3.080000000000021e-11
	0.000000000000000e+00
	-7.132775263385699e-14
	-7.132775263385699e-14
309	3.090000000000020e-11
	0.000000000000000e+00
	-6.179811445449148e-14
	-6.179811445449148e-14
310	3.100000000000020e-11
	0.000000000000000e+00
	-5.041165736243533e-14
	-5.041165736243533e-14
311	3.110000000000020e-11
	0.000000000000000e+00