Title: ** OR 2 INPUT GATE ****
Date: 04-10-2021 20:37:59
Plotname: transient analysis
Flags: real
No. Variables: 6       
No. Points: 8001    
Variables: 0 time time
 1 V(1,0) voltage
 2 V(2,0) voltage
 3 V(3,0) voltage
 4 V(5,0) voltage
 5 V(10,0) voltage
Values:
0	0.000000000000000e+00
	0.000000000000000e+00
	0.000000000000000e+00
	0.000000000000000e+00
	0.000000000000000e+00
	0.000000000000000e+00
1	1.000000000000000e-13
	0.000000000000000e+00
	0.000000000000000e+00
	0.000000000000000e+00
	1.016062043437428e-06
	0.000000000000000e+00
2	2.000000000000000e-13
	0.000000000000000e+00
	0.000000000000000e+00
	0.000000000000000e+00
	3.395794608952693e-06
	0.000000000000000e+00
3	3.000000000000000e-13
	0.000000000000000e+00
	0.000000000000000e+00
	0.000000000000000e+00
	7.732668941803141e-06
	0.000000000000000e+00
4	4.000000000000000e-13
	0.000000000000000e+00
	0.000000000000000e+00
	0.000000000000000e+00
	1.304955264211092e-05
	0.000000000000000e+00
5	5.000000000000000e-13
	0.000000000000000e+00
	0.000000000000000e+00
	0.000000000000000e+00
	1.893773242773073e-05
	0.000000000000000e+00
6	6.000000000000000e-13
	0.000000000000000e+00
	0.000000000000000e+00
	0.000000000000000e+00
	2.501478532169910e-05
	0.000000000000000e+00
7	6.999999999999999e-13
	0.000000000000000e+00
	0.000000000000000e+00
	0.000000000000000e+00
	3.094721851871388e-05
	0.000000000000000e+00
8	7.999999999999999e-13
	0.000000000000000e+00
	0.000000000000000e+00
	0.000000000000000e+00
	3.646124766352129e-05
	0.000000000000000e+00
9	8.999999999999999e-13
	0.000000000000000e+00
	0.000000000000000e+00
	0.000000000000000e+00
	4.134856657214488e-05
	0.000000000000000e+00
10	1.000000000000000e-12
	0.000000000000000e+00
	0.000000000000000e+00
	0.000000000000000e+00
	4.546744037837966e-05
	0.000000000000000e+00
11	1.100000000000000e-12
	0.000000000000000e+00
	0.000000000000000e+00
	0.000000000000000e+00
	4.873977085716198e-05
	0.000000000000000e+00
12	1.200000000000000e-12
	0.000000000000000e+00
	0.000000000000000e+00
	0.000000000000000e+00
	5.114494205024345e-05
	0.000000000000000e+00
13	1.300000000000000e-12
	0.000000000000000e+00
	0.000000000000000e+00
	0.000000000000000e+00
	5.271133883454283e-05
	0.000000000000000e+00
14	1.400000000000000e-12
	0.000000000000000e+00
	0.000000000000000e+00
	0.000000000000000e+00
	5.350644396241850e-05
	0.000000000000000e+00
15	1.500000000000000e-12
	0.000000000000000e+00
	0.000000000000000e+00
	0.000000000000000e+00
	5.362636805056661e-05
	0.000000000000000e+00
16	1.600000000000000e-12
	0.000000000000000e+00
	0.000000000000000e+00
	0.000000000000000e+00
	5.318556328085937e-05
	0.000000000000000e+00
17	1.700000000000000e-12
	0.000000000000000e+00
	0.000000000000000e+00
	0.000000000000000e+00
	5.230732972083276e-05
	0.000000000000000e+00
18	1.800000000000000e-12
	0.000000000000000e+00
	0.000000000000000e+00
	0.000000000000000e+00
	5.111555976688061e-05
	0.000000000000000e+00
19	1.900000000000000e-12
	0.000000000000000e+00
	0.000000000000000e+00
	0.000000000000000e+00
	4.972799812668138e-05
	0.000000000000000e+00
20	2.000000000000000e-12
	0.000000000000000e+00
	0.000000000000000e+00
	0.000000000000000e+00
	4.825113714658908e-05
	0.000000000000000e+00
21	2.100000000000000e-12
	0.000000000000000e+00
	0.000000000000000e+00
	0.000000000000000e+00
	4.677673194325429e-05
	0.000000000000000e+00
22	2.200000000000000e-12
	0.000000000000000e+00
	0.000000000000000e+00
	0.000000000000000e+00
	4.537981415997768e-05
	0.000000000000000e+00
23	2.300000000000000e-12
	0.000000000000000e+00
	0.000000000000000e+00
	0.000000000000000e+00
	4.411801016273828e-05
	0.000000000000000e+00
24	2.400000000000000e-12
	0.000000000000000e+00
	0.000000000000000e+00
	0.000000000000000e+00
	4.303192805653903e-05
	0.000000000000000e+00
25	2.500000000000000e-12
	0.000000000000000e+00
	0.000000000000000e+00
	0.000000000000000e+00
	4.214636398690963e-05
	0.000000000000000e+00
26	2.600000000000000e-12
	0.000000000000000e+00
	0.000000000000000e+00
	0.000000000000000e+00
	4.147208593836347e-05
	0.000000000000000e+00
27	2.700000000000000e-12
	0.000000000000000e+00
	0.000000000000000e+00
	0.000000000000000e+00
	4.100797613431848e-05
	0.000000000000000e+00
28	2.800000000000000e-12
	0.000000000000000e+00
	0.000000000000000e+00
	0.000000000000000e+00
	4.074334493797407e-05
	0.000000000000000e+00
29	2.900000000000000e-12
	0.000000000000000e+00
	0.000000000000000e+00
	0.000000000000000e+00
	4.066026453049798e-05
	0.000000000000000e+00
30	3.000000000000000e-12
	0.000000000000000e+00
	0.000000000000000e+00
	0.000000000000000e+00
	4.073580555852640e-05
	0.000000000000000e+00
31	3.100000000000000e-12
	0.000000000000000e+00
	0.000000000000000e+00
	0.000000000000000e+00
	4.094409172607056e-05
	0.000000000000000e+00
32	3.200000000000000e-12
	0.000000000000000e+00
	0.000000000000000e+00
	0.000000000000000e+00
	4.125811455163421e-05
	0.000000000000000e+00
33	3.300000000000000e-12
	0.000000000000000e+00
	0.000000000000000e+00
	0.000000000000000e+00
	4.165127284472196e-05
	0.000000000000000e+00
34	3.400000000000000e-12
	0.000000000000000e+00
	0.000000000000000e+00
	0.000000000000000e+00
	4.209861922913468e-05
	0.000000000000000e+00
35	3.500000000000000e-12
	0.000000000000000e+00
	0.000000000000000e+00
	0.000000000000000e+00
	4.257781002013540e-05
	0.000000000000000e+00
36	3.600000000000000e-12
	0.000000000000000e+00
	0.000000000000000e+00
	0.000000000000000e+00
	4.306976585053257e-05
	0.000000000000000e+00
37	3.700000000000000e-12
	0.000000000000000e+00
	0.000000000000000e+00
	0.000000000000000e+00
	4.355905945717544e-05
	0.000000000000000e+00
38	3.800000000000000e-12
	0.000000000000000e+00
	0.000000000000000e+00
	0.000000000000000e+00
	4.403405458346498e-05
	0.000000000000000e+00
39	3.900000000000000e-12
	0.000000000000000e+00
	0.000000000000000e+00
	0.000000000000000e+00
	4.448682634301904e-05
	0.000000000000000e+00
40	4.000000000000000e-12
	0.000000000000000e+00
	0.000000000000000e+00
	0.000000000000000e+00
	4.491289867049625e-05
	0.000000000000000e+00
41	4.100000000000000e-12
	0.000000000000000e+00
	0.000000000000000e+00
	0.000000000000000e+00
	4.531083849437592e-05
	0.000000000000000e+00
42	4.200000000000000e-12
	0.000000000000000e+00
	0.000000000000000e+00
	0.000000000000000e+00
	4.568174872491695e-05
	0.000000000000000e+00
43	4.300000000000000e-12
	0.000000000000000e+00
	0.000000000000000e+00
	0.000000000000000e+00
	4.602870276984925e-05
	0.000000000000000e+00
44	4.400000000000000e-12
	0.000000000000000e+00
	0.000000000000000e+00
	0.000000000000000e+00
	4.635616186652844e-05
	0.000000000000000e+00
45	4.500000000000000e-12
	0.000000000000000e+00
	0.000000000000000e+00
	0.000000000000000e+00
	4.666941300397609e-05
	0.000000000000000e+00
46	4.600000000000000e-12
	0.000000000000000e+00
	0.000000000000000e+00
	0.000000000000000e+00
	4.697405974713116e-05
	0.000000000000000e+00
47	4.700000000000000e-12
	0.000000000000000e+00
	0.000000000000000e+00
	0.000000000000000e+00
	4.727559121150043e-05
	0.000000000000000e+00
48	4.800000000000000e-12
	0.000000000000000e+00
	0.000000000000000e+00
	0.000000000000000e+00
	4.757904627976238e-05
	0.000000000000000e+00
49	4.900000000000000e-12
	0.000000000000000e+00
	0.000000000000000e+00
	0.000000000000000e+00
	4.788878152686093e-05
	0.000000000000000e+00
50	5.000000000000000e-12
	0.000000000000000e+00
	0.000000000000000e+00
	0.000000000000000e+00
	4.820834289504021e-05
	0.000000000000000e+00
51	5.100000000000000e-12
	0.000000000000000e+00
	0.000000000000000e+00
	0.000000000000000e+00
	4.752437153057967e-05
	0.000000000000000e+00
52	5.200000000000000e-12
	0.000000000000000e+00
	0.000000000000000e+00
	0.000000000000000e+00
	4.502288698993462e-05
	0.000000000000000e+00
53	5.300000000000000e-12
	0.000000000000000e+00
	0.000000000000000e+00
	0.000000000000000e+00
	4.110139488249272e-05
	0.000000000000000e+00
54	5.400000000000000e-12
	0.000000000000000e+00
	0.000000000000000e+00
	0.000000000000000e+00
	3.614919997889012e-05
	0.000000000000000e+00
55	5.500000000000000e-12
	0.000000000000000e+00
	0.000000000000000e+00
	0.000000000000000e+00
	3.053901282627172e-05
	0.000000000000000e+00
56	5.600000000000000e-12
	0.000000000000000e+00
	0.000000000000000e+00
	0.000000000000000e+00
	2.461147884050896e-05
	0.000000000000000e+00
57	5.700000000000000e-12
	0.000000000000000e+00
	0.000000000000000e+00
	0.000000000000000e+00
	1.866434829730962e-05
	0.000000000000000e+00
58	5.800000000000000e-12
	0.000000000000000e+00
	0.000000000000000e+00
	0.000000000000000e+00
	1.294591725157686e-05
	0.000000000000000e+00
59	5.899999999999999e-12
	0.000000000000000e+00
	0.000000000000000e+00
	0.000000000000000e+00
	7.652242318593356e-06
	0.000000000000000e+00
60	5.999999999999999e-12
	0.000000000000000e+00
	0.000000000000000e+00
	0.000000000000000e+00
	2.927498580260402e-06
	0.000000000000000e+00
61	6.099999999999999e-12
	0.000000000000000e+00
	0.000000000000000e+00
	0.000000000000000e+00
	-1.133197391271977e-06
	0.000000000000000e+00
62	6.199999999999999e-12
	0.000000000000000e+00
	0.000000000000000e+00
	0.000000000000000e+00
	-4.479162852249110e-06
	0.000000000000000e+00
63	6.299999999999999e-12
	0.000000000000000e+00
	0.000000000000000e+00
	0.000000000000000e+00
	-7.098331573382729e-06
	0.000000000000000e+00
64	6.399999999999999e-12
	0.000000000000000e+00
	0.000000000000000e+00
	0.000000000000000e+00
	-9.010776192763705e-06
	0.000000000000000e+00
65	6.499999999999999e-12
	0.000000000000000e+00
	0.000000000000000e+00
	0.000000000000000e+00
	-1.026201607700122e-05
	0.000000000000000e+00
66	6.599999999999999e-12
	0.000000000000000e+00
	0.000000000000000e+00
	0.000000000000000e+00
	-1.091646849435547e-05
	0.000000000000000e+00
67	6.699999999999999e-12
	0.000000000000000e+00
	0.000000000000000e+00
	0.000000000000000e+00
	-1.105131622958261e-05
	0.000000000000000e+00
68	6.799999999999999e-12
	0.000000000000000e+00
	0.000000000000000e+00
	0.000000000000000e+00
	-1.075098639769856e-05
	0.000000000000000e+00
69	6.899999999999999e-12
	0.000000000000000e+00
	0.000000000000000e+00
	0.000000000000000e+00
	-1.010236497907418e-05
	0.000000000000000e+00
70	6.999999999999999e-12
	0.000000000000000e+00
	0.000000000000000e+00
	0.000000000000000e+00
	-9.190810748731100e-06
	0.000000000000000e+00
71	7.099999999999999e-12
	0.000000000000000e+00
	0.000000000000000e+00
	0.000000000000000e+00
	-8.096981648735816e-06
	0.000000000000000e+00
72	7.199999999999999e-12
	0.000000000000000e+00
	0.000000000000000e+00
	0.000000000000000e+00
	-6.894446665944661e-06
	0.000000000000000e+00
73	7.300000000000000e-12
	0.000000000000000e+00
	0.000000000000000e+00
	0.000000000000000e+00
	-5.648026823125546e-06
	0.000000000000000e+00
74	7.400000000000000e-12
	0.000000000000000e+00
	0.000000000000000e+00
	0.000000000000000e+00
	-4.412789296215633e-06
	0.000000000000000e+00
75	7.500000000000000e-12
	0.000000000000000e+00
	0.000000000000000e+00
	0.000000000000000e+00
	-3.233607729754806e-06
	0.000000000000000e+00
76	7.600000000000000e-12
	0.000000000000000e+00
	0.000000000000000e+00
	0.000000000000000e+00
	-2.145197933708135e-06
	0.000000000000000e+00
77	7.700000000000000e-12
	0.000000000000000e+00
	0.000000000000000e+00
	0.000000000000000e+00
	-1.172539506412765e-06
	0.000000000000000e+00
78	7.800000000000000e-12
	0.000000000000000e+00
	0.000000000000000e+00
	0.000000000000000e+00
	-3.315987609354383e-07
	0.000000000000000e+00
79	7.900000000000000e-12
	0.000000000000000e+00
	0.000000000000000e+00
	0.000000000000000e+00
	3.697249236945354e-07
	0.000000000000000e+00
80	8.000000000000000e-12
	0.000000000000000e+00
	0.000000000000000e+00
	0.000000000000000e+00
	9.304997483318504e-07
	0.000000000000000e+00
81	8.100000000000000e-12
	0.000000000000000e+00
	0.000000000000000e+00
	0.000000000000000e+00
	1.355572163301362e-06
	0.000000000000000e+00
82	8.200000000000000e-12
	0.000000000000000e+00
	0.000000000000000e+00
	0.000000000000000e+00
	1.654343612498005e-06
	0.000000000000000e+00
83	8.300000000000000e-12
	0.000000000000000e+00
	0.000000000000000e+00
	0.000000000000000e+00
	1.839562860991016e-06
	0.000000000000000e+00
84	8.400000000000000e-12
	0.000000000000000e+00
	0.000000000000000e+00
	0.000000000000000e+00
	1.926177091302164e-06
	0.000000000000000e+00
85	8.500000000000000e-12
	0.000000000000000e+00
	0.000000000000000e+00
	0.000000000000000e+00
	1.930278529034161e-06
	0.000000000000000e+00
86	8.600000000000000e-12
	0.000000000000000e+00
	0.000000000000000e+00
	0.000000000000000e+00
	1.868176533236404e-06
	0.000000000000000e+00
87	8.700000000000000e-12
	0.000000000000000e+00
	0.000000000000000e+00
	0.000000000000000e+00
	1.755617674816719e-06
	0.000000000000000e+00
88	8.800000000000000e-12
	0.000000000000000e+00
	0.000000000000000e+00
	0.000000000000000e+00
	1.607168314531205e-06
	0.000000000000000e+00
89	8.900000000000000e-12
	0.000000000000000e+00
	0.000000000000000e+00
	0.000000000000000e+00
	1.435765759070597e-06
	0.000000000000000e+00
90	9.000000000000000e-12
	0.000000000000000e+00
	0.000000000000000e+00
	0.000000000000000e+00
	1.252435569501112e-06
	0.000000000000000e+00
91	9.100000000000000e-12
	0.000000000000000e+00
	0.000000000000000e+00
	0.000000000000000e+00
	1.066164492092387e-06
	0.000000000000000e+00
92	9.200000000000000e-12
	0.000000000000000e+00
	0.000000000000000e+00
	0.000000000000000e+00
	8.839113003707036e-07
	0.000000000000000e+00
93	9.300000000000000e-12
	0.000000000000000e+00
	0.000000000000000e+00
	0.000000000000000e+00
	7.107320773300040e-07
	0.000000000000000e+00
94	9.400000000000000e-12
	0.000000000000000e+00
	0.000000000000000e+00
	0.000000000000000e+00
	5.499925303352603e-07
	0.000000000000000e+00
95	9.500000000000000e-12
	0.000000000000000e+00
	0.000000000000000e+00
	0.000000000000000e+00
	4.036380684354971e-07
	0.000000000000000e+00
96	9.599999999999999e-12
	0.000000000000000e+00
	0.000000000000000e+00
	0.000000000000000e+00
	2.724926465495968e-07
	0.000000000000000e+00
97	9.699999999999999e-12
	0.000000000000000e+00
	0.000000000000000e+00
	0.000000000000000e+00
	1.565596626778680e-07
	0.000000000000000e+00
98	9.799999999999999e-12
	0.000000000000000e+00
	0.000000000000000e+00
	0.000000000000000e+00
	5.530217416777663e-08
	0.000000000000000e+00
99	9.899999999999999e-12
	0.000000000000000e+00
	0.000000000000000e+00
	0.000000000000000e+00
	-3.211507211044990e-08
	0.000000000000000e+00
100	9.999999999999999e-12
	0.000000000000000e+00
	0.000000000000000e+00
	0.000000000000000e+00
	-1.066333601375552e-07
	0.000000000000000e+00
101	1.010000000000000e-11
	0.000000000000000e+00
	0.000000000000000e+00
	0.000000000000000e+00
	-1.691629526185160e-07
	0.000000000000000e+00
102	1.020000000000000e-11
	0.000000000000000e+00
	0.000000000000000e+00
	0.000000000000000e+00
	-2.205010426220465e-07
	0.000000000000000e+00
103	1.030000000000000e-11
	0.000000000000000e+00
	0.000000000000000e+00
	0.000000000000000e+00
	-2.612996220328006e-07
	0.000000000000000e+00
104	1.040000000000000e-11
	0.000000000000000e+00
	0.000000000000000e+00
	0.000000000000000e+00
	-2.920744832562207e-07
	0.000000000000000e+00
105	1.050000000000000e-11
	0.000000000000000e+00
	0.000000000000000e+00
	0.000000000000000e+00
	-3.132442262728069e-07
	0.000000000000000e+00
106	1.060000000000000e-11
	0.000000000000000e+00
	0.000000000000000e+00
	0.000000000000000e+00
	-3.251871886330599e-07
	0.000000000000000e+00
107	1.070000000000000e-11
	0.000000000000000e+00
	0.000000000000000e+00
	0.000000000000000e+00
	-3.283045524712049e-07
	0.000000000000000e+00
108	1.080000000000000e-11
	0.000000000000000e+00
	0.000000000000000e+00
	0.000000000000000e+00
	-3.230792997338800e-07
	0.000000000000000e+00
109	1.090000000000000e-11
	0.000000000000000e+00
	0.000000000000000e+00
	0.000000000000000e+00
	-3.101228966466897e-07
	0.000000000000000e+00
110	1.100000000000000e-11
	0.000000000000000e+00
	0.000000000000000e+00
	0.000000000000000e+00
	-2.902042637443953e-07
	0.000000000000000e+00
111	1.110000000000000e-11
	0.000000000000000e+00
	0.000000000000000e+00
	0.000000000000000e+00
	-2.642583998899228e-07
	0.000000000000000e+00
112	1.120000000000000e-11
	0.000000000000000e+00
	0.000000000000000e+00
	0.000000000000000e+00
	-2.333746808649991e-07
	0.000000000000000e+00
113	1.130000000000000e-11
	0.000000000000000e+00
	0.000000000000000e+00
	0.000000000000000e+00
	-1.987671063686592e-07
	0.000000000000000e+00
114	1.140000000000000e-11
	0.000000000000000e+00
	0.000000000000000e+00
	0.000000000000000e+00
	-1.617304588477923e-07
	0.000000000000000e+00
115	1.150000000000000e-11
	0.000000000000000e+00
	0.000000000000000e+00
	0.000000000000000e+00
	-1.235873793910972e-07
	0.000000000000000e+00
116	1.160000000000000e-11
	0.000000000000000e+00
	0.000000000000000e+00
	0.000000000000000e+00
	-8.563175355612508e-08
	0.000000000000000e+00
117	1.170000000000000e-11
	0.000000000000000e+00
	0.000000000000000e+00
	0.000000000000000e+00
	-4.907359409714347e-08
	0.000000000000000e+00
118	1.180000000000000e-11
	0.000000000000000e+00
	0.000000000000000e+00
	0.000000000000000e+00
	-1.498991949830370e-08
	0.000000000000000e+00
119	1.190000000000000e-11
	0.000000000000000e+00
	0.000000000000000e+00
	0.000000000000000e+00
	1.571490014942885e-08
	0.000000000000000e+00
120	1.200000000000000e-11
	0.000000000000000e+00
	0.000000000000000e+00
	0.000000000000000e+00
	4.233707046485314e-08
	0.000000000000000e+00
121	1.210000000000000e-11
	0.000000000000000e+00
	0.000000000000000e+00
	0.000000000000000e+00
	6.438856226554003e-08
	0.000000000000000e+00
122	1.220000000000000e-11
	0.000000000000000e+00
	0.000000000000000e+00
	0.000000000000000e+00
	8.159970943362730e-08
	0.000000000000000e+00
123	1.230000000000000e-11
	0.000000000000000e+00
	0.000000000000000e+00
	0.000000000000000e+00
	9.391033052162208e-08
	0.000000000000000e+00
124	1.240000000000000e-11
	0.000000000000000e+00
	0.000000000000000e+00
	0.000000000000000e+00
	1.014512094590971e-07
	0.000000000000000e+00
125	1.250000000000000e-11
	0.000000000000000e+00
	0.000000000000000e+00
	0.000000000000000e+00
	1.045182165258919e-07
	0.000000000000000e+00
126	1.260000000000000e-11
	0.000000000000000e+00
	0.000000000000000e+00
	0.000000000000000e+00
	1.035415297094539e-07
	0.000000000000000e+00
127	1.270000000000000e-11
	0.000000000000000e+00
	0.000000000000000e+00
	0.000000000000000e+00
	9.905236175971778e-08
	0.000000000000000e+00
128	1.280000000000000e-11
	0.000000000000000e+00
	0.000000000000000e+00
	0.000000000000000e+00
	9.164936023791948e-08
	0.000000000000000e+00
129	1.290000000000000e-11
	0.000000000000000e+00
	0.000000000000000e+00
	0.000000000000000e+00
	8.196648584468270e-08
	0.000000000000000e+00
130	1.300000000000000e-11
	0.000000000000000e+00
	0.000000000000000e+00
	0.000000000000000e+00
	7.064374805369976e-08
	0.000000000000000e+00
131	1.310000000000000e-11
	0.000000000000000e+00
	0.000000000000000e+00
	0.000000000000000e+00
	5.830174014461821e-08
	0.000000000000000e+00
132	1.320000000000000e-11
	0.000000000000000e+00
	0.000000000000000e+00
	0.000000000000000e+00
	4.552051080515955e-08
	0.000000000000000e+00
133	1.330000000000000e-11
	0.000000000000000e+00
	0.000000000000000e+00
	0.000000000000000e+00
	3.282296580609886e-08
	0.000000000000000e+00
134	1.340000000000000e-11
	0.000000000000000e+00
	0.000000000000000e+00
	0.000000000000000e+00
	2.066272619957816e-08
	0.000000000000000e+00
135	1.350000000000000e-11
	0.000000000000000e+00
	0.000000000000000e+00
	0.000000000000000e+00
	9.416181820964629e-09
	0.000000000000000e+00
136	1.360000000000000e-11
	0.000000000000000e+00
	0.000000000000000e+00
	0.000000000000000e+00
	-6.216366459123626e-10
	0.000000000000000e+00
137	1.370000000000000e-11
	0.000000000000000e+00
	0.000000000000000e+00
	0.000000000000000e+00
	-9.237801078149165e-09
	0.000000000000000e+00
138	1.380000000000000e-11
	0.000000000000000e+00
	0.000000000000000e+00
	0.000000000000000e+00
	-1.629929504992765e-08
	0.000000000000000e+00
139	1.390000000000000e-11
	0.000000000000000e+00
	0.000000000000000e+00
	0.000000000000000e+00
	-2.174833124505043e-08
	0.000000000000000e+00
140	1.400000000000000e-11
	0.000000000000000e+00
	0.000000000000000e+00
	0.000000000000000e+00
	-2.559560274887912e-08
	0.000000000000000e+00
141	1.410000000000000e-11
	0.000000000000000e+00
	0.000000000000000e+00
	0.000000000000000e+00
	-2.791187815578560e-08
	0.000000000000000e+00
142	1.420000000000000e-11
	0.000000000000000e+00
	0.000000000000000e+00
	0.000000000000000e+00
	-2.881834169808663e-08
	0.000000000000000e+00
143	1.430000000000000e-11
	0.000000000000000e+00
	0.000000000000000e+00
	0.000000000000000e+00
	-2.847607875064663e-08
	0.000000000000000e+00
144	1.440000000000000e-11
	0.000000000000000e+00
	0.000000000000000e+00
	0.000000000000000e+00
	-2.707511116586082e-08
	0.000000000000000e+00
145	1.450000000000000e-11
	0.000000000000000e+00
	0.000000000000000e+00
	0.000000000000000e+00
	-2.482339046465664e-08
	0.000000000000000e+00
146	1.460000000000000e-11
	0.000000000000000e+00
	0.000000000000000e+00
	0.000000000000000e+00
	-2.193615342573785e-08
	0.000000000000000e+00
147	1.470000000000000e-11
	0.000000000000000e+00
	0.000000000000000e+00
	0.000000000000000e+00
	-1.862602797909673e-08
	0.000000000000000e+00
148	1.480000000000000e-11
	0.000000000000000e+00
	0.000000000000000e+00
	0.000000000000000e+00
	-1.509424306564687e-08
	0.000000000000000e+00
149	1.490000000000000e-11
	0.000000000000000e+00
	0.000000000000000e+00
	0.000000000000000e+00
	-1.152324228536459e-08
	0.000000000000000e+00
150	1.500000000000001e-11
	0.000000000000000e+00
	0.000000000000000e+00
	0.000000000000000e+00
	-8.070928564993098e-09
	0.000000000000000e+00
151	1.510000000000001e-11
	0.000000000000000e+00
	0.000000000000000e+00
	0.000000000000000e+00
	-4.866679308835843e-09
	0.000000000000000e+00
152	1.520000000000001e-11
	0.000000000000000e+00
	0.000000000000000e+00
	0.000000000000000e+00
	-2.009174365253210e-09
	0.000000000000000e+00
153	1.530000000000001e-11
	0.000000000000000e+00
	0.000000000000000e+00
	0.000000000000000e+00
	4.340200853296501e-10
	0.000000000000000e+00
154	1.540000000000001e-11
	0.000000000000000e+00
	0.000000000000000e+00
	0.000000000000000e+00
	2.425262154451485e-09
	0.000000000000000e+00
155	1.550000000000001e-11
	0.000000000000000e+00
	0.000000000000000e+00
	0.000000000000000e+00
	3.954270320076772e-09
	0.000000000000000e+00
156	1.560000000000002e-11
	0.000000000000000e+00
	0.000000000000000e+00
	0.000000000000000e+00
	5.034477294142971e-09
	0.000000000000000e+00
157	1.570000000000002e-11
	0.000000000000000e+00
	0.000000000000000e+00
	0.000000000000000e+00
	5.698632180996088e-09
	0.000000000000000e+00
158	1.580000000000002e-11
	0.000000000000000e+00
	0.000000000000000e+00
	0.000000000000000e+00
	5.993994468577865e-09
	0.000000000000000e+00
159	1.590000000000002e-11
	0.000000000000000e+00
	0.000000000000000e+00
	0.000000000000000e+00
	5.977451832052406e-09
	0.000000000000000e+00
160	1.600000000000002e-11
	0.000000000000000e+00
	0.000000000000000e+00
	0.000000000000000e+00
	5.710860240111172e-09
	0.000000000000000e+00
161	1.610000000000002e-11
	0.000000000000000e+00
	0.000000000000000e+00
	0.000000000000000e+00
	5.256853873485565e-09
	0.000000000000000e+00
162	1.620000000000003e-11
	0.000000000000000e+00
	0.000000000000000e+00
	0.000000000000000e+00
	4.675309513730162e-09
	0.000000000000000e+00
163	1.630000000000003e-11
	0.000000000000000e+00
	0.000000000000000e+00
	0.000000000000000e+00
	4.020581494188594e-09
	0.000000000000000e+00
164	1.640000000000003e-11
	0.000000000000000e+00
	0.000000000000000e+00
	0.000000000000000e+00
	3.339555074284686e-09
	0.000000000000000e+00
165	1.650000000000003e-11
	0.000000000000000e+00
	0.000000000000000e+00
	0.000000000000000e+00
	2.670503577329191e-09
	0.000000000000000e+00
166	1.660000000000003e-11
	0.000000000000000e+00
	0.000000000000000e+00
	0.000000000000000e+00
	2.042682081704812e-09
	0.000000000000000e+00
167	1.670000000000003e-11
	0.000000000000000e+00
	0.000000000000000e+00
	0.000000000000000e+00
	1.476550746846119e-09
	0.000000000000000e+00
168	1.680000000000004e-11
	0.000000000000000e+00
	0.000000000000000e+00
	0.000000000000000e+00
	9.844953657462060e-10
	0.000000000000000e+00
169	1.690000000000004e-11
	0.000000000000000e+00
	0.000000000000000e+00
	0.000000000000000e+00
	5.719014093444233e-10
	0.000000000000000e+00
170	1.700000000000004e-11
	0.000000000000000e+00
	0.000000000000000e+00
	0.000000000000000e+00
	2.384393713936311e-10
	0.000000000000000e+00
171	1.710000000000004e-11
	0.000000000000000e+00
	0.000000000000000e+00
	0.000000000000000e+00
	-2.056859903734729e-11
	0.000000000000000e+00
172	1.720000000000004e-11
	0.000000000000000e+00
	0.000000000000000e+00
	0.000000000000000e+00
	-2.128108042992294e-10
	0.000000000000000e+00
173	1.730000000000004e-11
	0.000000000000000e+00
	0.000000000000000e+00
	0.000000000000000e+00
	-3.477621396114532e-10
	0.000000000000000e+00
174	1.740000000000004e-11
	0.000000000000000e+00
	0.000000000000000e+00
	0.000000000000000e+00
	-4.356330533996100e-10
	0.000000000000000e+00
175	1.750000000000005e-11
	0.000000000000000e+00
	0.000000000000000e+00
	0.000000000000000e+00
	-4.865244207885649e-10
	0.000000000000000e+00
176	1.760000000000005e-11
	0.000000000000000e+00
	0.000000000000000e+00
	0.000000000000000e+00
	-5.097986016503890e-10
	0.000000000000000e+00
177	1.770000000000005e-11
	0.000000000000000e+00
	0.000000000000000e+00
	0.000000000000000e+00
	-5.136583873823419e-10
	0.000000000000000e+00
178	1.780000000000005e-11
	0.000000000000000e+00
	0.000000000000000e+00
	0.000000000000000e+00
	-5.049119421425316e-10
	0.000000000000000e+00
179	1.790000000000005e-11
	0.000000000000000e+00
	0.000000000000000e+00
	0.000000000000000e+00
	-4.888933093345548e-10
	0.000000000000000e+00
180	1.800000000000005e-11
	0.000000000000000e+00
	0.000000000000000e+00
	0.000000000000000e+00
	-4.695041685456772e-10
	0.000000000000000e+00
181	1.810000000000006e-11
	0.000000000000000e+00
	0.000000000000000e+00
	0.000000000000000e+00
	-4.493425137871372e-10
	0.000000000000000e+00
182	1.820000000000006e-11
	0.000000000000000e+00
	0.000000000000000e+00
	0.000000000000000e+00
	-4.298867952684169e-10
	0.000000000000000e+00
183	1.830000000000006e-11
	0.000000000000000e+00
	0.000000000000000e+00
	0.000000000000000e+00
	-4.117087806574719e-10
	0.000000000000000e+00
184	1.840000000000006e-11
	0.000000000000000e+00
	0.000000000000000e+00
	0.000000000000000e+00
	-3.946939722886355e-10
	0.000000000000000e+00
185	1.850000000000006e-11
	0.000000000000000e+00
	0.000000000000000e+00
	0.000000000000000e+00
	-3.782540497578781e-10
	0.000000000000000e+00
186	1.860000000000006e-11
	0.000000000000000e+00
	0.000000000000000e+00
	0.000000000000000e+00
	-3.615208954794572e-10
	0.000000000000000e+00
187	1.870000000000007e-11
	0.000000000000000e+00
	0.000000000000000e+00
	0.000000000000000e+00
	-3.435159420403252e-10
	0.000000000000000e+00
188	1.880000000000007e-11
	0.000000000000000e+00
	0.000000000000000e+00
	0.000000000000000e+00
	-3.232917135971286e-10
	0.000000000000000e+00
189	1.890000000000007e-11
	0.000000000000000e+00
	0.000000000000000e+00
	0.000000000000000e+00
	-3.000445608587769e-10
	0.000000000000000e+00
190	1.900000000000007e-11
	0.000000000000000e+00
	0.000000000000000e+00
	0.000000000000000e+00
	-2.731988819941492e-10
	0.000000000000000e+00
191	1.910000000000007e-11
	0.000000000000000e+00
	0.000000000000000e+00
	0.000000000000000e+00
	-2.424638217769977e-10
	0.000000000000000e+00
192	1.920000000000007e-11
	0.000000000000000e+00
	0.000000000000000e+00
	0.000000000000000e+00
	-2.078638057967398e-10
	0.000000000000000e+00
193	1.930000000000007e-11
	0.000000000000000e+00
	0.000000000000000e+00
	0.000000000000000e+00
	-1.697445222467692e-10
	0.000000000000000e+00
194	1.940000000000008e-11
	0.000000000000000e+00
	0.000000000000000e+00
	0.000000000000000e+00
	-1.287562753305696e-10
	0.000000000000000e+00
195	1.950000000000008e-11
	0.000000000000000e+00
	0.000000000000000e+00
	0.000000000000000e+00
	-8.581708880486210e-11
	0.000000000000000e+00
196	1.960000000000008e-11
	0.000000000000000e+00
	0.000000000000000e+00
	0.000000000000000e+00
	-4.205854448019477e-11
	0.000000000000000e+00
197	1.970000000000008e-11
	0.000000000000000e+00
	0.000000000000000e+00
	0.000000000000000e+00
	1.241958388491514e-12
	0.000000000000000e+00
198	1.980000000000008e-11
	0.000000000000000e+00
	0.000000000000000e+00
	0.000000000000000e+00
	4.273814303061493e-11
	0.000000000000000e+00
199	1.990000000000008e-11
	0.000000000000000e+00
	0.000000000000000e+00
	0.000000000000000e+00
	8.109605041886435e-11
	0.000000000000000e+00
200	2.000000000000009e-11
	0.000000000000000e+00
	0.000000000000000e+00
	0.000000000000000e+00
	1.150742283366422e-10
	0.000000000000000e+00
201	2.010000000000009e-11
	0.000000000000000e+00
	0.000000000000000e+00
	0.000000000000000e+00
	1.435976713844840e-10
	0.000000000000000e+00
202	2.020000000000009e-11
	0.000000000000000e+00
	0.000000000000000e+00
	0.000000000000000e+00
	1.658206721423656e-10
	0.000000000000000e+00
203	2.030000000000009e-11
	0.000000000000000e+00
	0.000000000000000e+00
	0.000000000000000e+00
	1.811745294505978e-10
	0.000000000000000e+00
204	2.040000000000009e-11
	0.000000000000000e+00
	0.000000000000000e+00
	0.000000000000000e+00
	1.893971767949860e-10
	0.000000000000000e+00
205	2.050000000000009e-11
	0.000000000000000e+00
	0.000000000000000e+00
	0.000000000000000e+00
	1.905431492137058e-10
	0.000000000000000e+00
206	2.060000000000010e-11
	0.000000000000000e+00
	0.000000000000000e+00
	0.000000000000000e+00
	1.849737793465579e-10
	0.000000000000000e+00
207	2.070000000000010e-11
	0.000000000000000e+00
	0.000000000000000e+00
	0.000000000000000e+00
	1.733289668951032e-10
	0.000000000000000e+00
208	2.080000000000010e-11
	0.000000000000000e+00
	0.000000000000000e+00
	0.000000000000000e+00
	1.564831695269138e-10
	0.000000000000000e+00
209	2.090000000000010e-11
	0.000000000000000e+00
	0.000000000000000e+00
	0.000000000000000e+00
	1.354893044268917e-10
	0.000000000000000e+00
210	2.100000000000010e-11
	0.000000000000000e+00
	0.000000000000000e+00
	0.000000000000000e+00
	1.115149453370269e-10
	0.000000000000000e+00