Title: ** OR 4 INPUT GATE ****
Date: 04-10-2021 21:07:02
Plotname: transient analysis
Flags: real
No. Variables: 7       
No. Points: 16001   
Variables: 0 time time
 1 V(1,0) voltage
 2 V(2,0) voltage
 3 V(3,0) voltage
 4 V(4,0) voltage
 5 V(5,0) voltage
 6 V(10,0) voltage
Values:
0	0.000000000000000e+00
	0.000000000000000e+00
	0.000000000000000e+00
	0.000000000000000e+00
	0.000000000000000e+00
	0.000000000000000e+00
	0.000000000000000e+00
1	1.000000000000000e-13
	0.000000000000000e+00
	0.000000000000000e+00
	0.000000000000000e+00
	0.000000000000000e+00
	1.016065856948834e-06
	0.000000000000000e+00
2	2.000000000000000e-13
	0.000000000000000e+00
	0.000000000000000e+00
	0.000000000000000e+00
	0.000000000000000e+00
	3.395828896351474e-06
	0.000000000000000e+00
3	3.000000000000000e-13
	0.000000000000000e+00
	0.000000000000000e+00
	0.000000000000000e+00
	0.000000000000000e+00
	7.732873659325524e-06
	0.000000000000000e+00
4	4.000000000000000e-13
	0.000000000000000e+00
	0.000000000000000e+00
	0.000000000000000e+00
	0.000000000000000e+00
	1.305037375189893e-05
	0.000000000000000e+00
5	5.000000000000000e-13
	0.000000000000000e+00
	0.000000000000000e+00
	0.000000000000000e+00
	0.000000000000000e+00
	1.894024879256711e-05
	0.000000000000000e+00
6	6.000000000000000e-13
	0.000000000000000e+00
	0.000000000000000e+00
	0.000000000000000e+00
	0.000000000000000e+00
	2.502112676025124e-05
	0.000000000000000e+00
7	6.999999999999999e-13
	0.000000000000000e+00
	0.000000000000000e+00
	0.000000000000000e+00
	0.000000000000000e+00
	3.096099565561173e-05
	0.000000000000000e+00
8	7.999999999999999e-13
	0.000000000000000e+00
	0.000000000000000e+00
	0.000000000000000e+00
	0.000000000000000e+00
	3.648789610973172e-05
	0.000000000000000e+00
9	8.999999999999999e-13
	0.000000000000000e+00
	0.000000000000000e+00
	0.000000000000000e+00
	0.000000000000000e+00
	4.139551400117507e-05
	0.000000000000000e+00
10	1.000000000000000e-12
	0.000000000000000e+00
	0.000000000000000e+00
	0.000000000000000e+00
	0.000000000000000e+00
	4.554402918313971e-05
	0.000000000000000e+00
11	1.100000000000000e-12
	0.000000000000000e+00
	0.000000000000000e+00
	0.000000000000000e+00
	0.000000000000000e+00
	4.885690549501113e-05
	0.000000000000000e+00
12	1.200000000000000e-12
	0.000000000000000e+00
	0.000000000000000e+00
	0.000000000000000e+00
	0.000000000000000e+00
	5.131447189390558e-05
	0.000000000000000e+00
13	1.300000000000000e-12
	0.000000000000000e+00
	0.000000000000000e+00
	0.000000000000000e+00
	0.000000000000000e+00
	5.294522731650925e-05
	0.000000000000000e+00
14	1.400000000000000e-12
	0.000000000000000e+00
	0.000000000000000e+00
	0.000000000000000e+00
	0.000000000000000e+00
	5.381580698802416e-05
	0.000000000000000e+00
15	1.500000000000000e-12
	0.000000000000000e+00
	0.000000000000000e+00
	0.000000000000000e+00
	0.000000000000000e+00
	5.402048475271301e-05
	0.000000000000000e+00
16	1.600000000000000e-12
	0.000000000000000e+00
	0.000000000000000e+00
	0.000000000000000e+00
	0.000000000000000e+00
	5.367096803856597e-05
	0.000000000000000e+00
17	1.700000000000000e-12
	0.000000000000000e+00
	0.000000000000000e+00
	0.000000000000000e+00
	0.000000000000000e+00
	5.288708600796508e-05
	0.000000000000000e+00
18	1.800000000000000e-12
	0.000000000000000e+00
	0.000000000000000e+00
	0.000000000000000e+00
	0.000000000000000e+00
	5.178879581441973e-05
	0.000000000000000e+00
19	1.900000000000000e-12
	0.000000000000000e+00
	0.000000000000000e+00
	0.000000000000000e+00
	0.000000000000000e+00
	5.048975498196039e-05
	0.000000000000000e+00
20	2.000000000000000e-12
	0.000000000000000e+00
	0.000000000000000e+00
	0.000000000000000e+00
	0.000000000000000e+00
	4.909254571355128e-05
	0.000000000000000e+00
21	2.100000000000000e-12
	0.000000000000000e+00
	0.000000000000000e+00
	0.000000000000000e+00
	0.000000000000000e+00
	4.768550137437949e-05
	0.000000000000000e+00
22	2.200000000000000e-12
	0.000000000000000e+00
	0.000000000000000e+00
	0.000000000000000e+00
	0.000000000000000e+00
	4.634098352963894e-05
	0.000000000000000e+00
23	2.300000000000000e-12
	0.000000000000000e+00
	0.000000000000000e+00
	0.000000000000000e+00
	0.000000000000000e+00
	4.511489183522552e-05
	0.000000000000000e+00
24	2.400000000000000e-12
	0.000000000000000e+00
	0.000000000000000e+00
	0.000000000000000e+00
	0.000000000000000e+00
	4.404715661126821e-05
	0.000000000000000e+00
25	2.500000000000000e-12
	0.000000000000000e+00
	0.000000000000000e+00
	0.000000000000000e+00
	0.000000000000000e+00
	4.316295979971286e-05
	0.000000000000000e+00
26	2.600000000000000e-12
	0.000000000000000e+00
	0.000000000000000e+00
	0.000000000000000e+00
	0.000000000000000e+00
	4.247444718599693e-05
	0.000000000000000e+00
27	2.700000000000000e-12
	0.000000000000000e+00
	0.000000000000000e+00
	0.000000000000000e+00
	0.000000000000000e+00
	4.198272572912434e-05
	0.000000000000000e+00
28	2.800000000000000e-12
	0.000000000000000e+00
	0.000000000000000e+00
	0.000000000000000e+00
	0.000000000000000e+00
	4.167997761005719e-05
	0.000000000000000e+00
29	2.900000000000000e-12
	0.000000000000000e+00
	0.000000000000000e+00
	0.000000000000000e+00
	0.000000000000000e+00
	4.155156143160510e-05
	0.000000000000000e+00
30	3.000000000000000e-12
	0.000000000000000e+00
	0.000000000000000e+00
	0.000000000000000e+00
	0.000000000000000e+00
	4.157800674635286e-05
	0.000000000000000e+00
31	3.100000000000000e-12
	0.000000000000000e+00
	0.000000000000000e+00
	0.000000000000000e+00
	0.000000000000000e+00
	4.173683828862579e-05
	0.000000000000000e+00
32	3.200000000000000e-12
	0.000000000000000e+00
	0.000000000000000e+00
	0.000000000000000e+00
	0.000000000000000e+00
	4.200418998789565e-05
	0.000000000000000e+00
33	3.300000000000000e-12
	0.000000000000000e+00
	0.000000000000000e+00
	0.000000000000000e+00
	0.000000000000000e+00
	4.235618628335381e-05
	0.000000000000000e+00
34	3.400000000000000e-12
	0.000000000000000e+00
	0.000000000000000e+00
	0.000000000000000e+00
	0.000000000000000e+00
	4.277008048217924e-05
	0.000000000000000e+00
35	3.500000000000000e-12
	0.000000000000000e+00
	0.000000000000000e+00
	0.000000000000000e+00
	0.000000000000000e+00
	4.322514834693767e-05
	0.000000000000000e+00
36	3.600000000000000e-12
	0.000000000000000e+00
	0.000000000000000e+00
	0.000000000000000e+00
	0.000000000000000e+00
	4.370334124549260e-05
	0.000000000000000e+00
37	3.700000000000000e-12
	0.000000000000000e+00
	0.000000000000000e+00
	0.000000000000000e+00
	0.000000000000000e+00
	4.418970830777778e-05
	0.000000000000000e+00
38	3.800000000000000e-12
	0.000000000000000e+00
	0.000000000000000e+00
	0.000000000000000e+00
	0.000000000000000e+00
	4.467260196824691e-05
	0.000000000000000e+00
39	3.900000000000000e-12
	0.000000000000000e+00
	0.000000000000000e+00
	0.000000000000000e+00
	0.000000000000000e+00
	4.514368642734351e-05
	0.000000000000000e+00
40	4.000000000000000e-12
	0.000000000000000e+00
	0.000000000000000e+00
	0.000000000000000e+00
	0.000000000000000e+00
	4.559777389875255e-05
	0.000000000000000e+00
41	4.100000000000000e-12
	0.000000000000000e+00
	0.000000000000000e+00
	0.000000000000000e+00
	0.000000000000000e+00
	4.603251863943856e-05
	0.000000000000000e+00
42	4.200000000000000e-12
	0.000000000000000e+00
	0.000000000000000e+00
	0.000000000000000e+00
	0.000000000000000e+00
	4.644800310332649e-05
	0.000000000000000e+00
43	4.300000000000000e-12
	0.000000000000000e+00
	0.000000000000000e+00
	0.000000000000000e+00
	0.000000000000000e+00
	4.684625348626251e-05
	0.000000000000000e+00
44	4.400000000000000e-12
	0.000000000000000e+00
	0.000000000000000e+00
	0.000000000000000e+00
	0.000000000000000e+00
	4.723072290302314e-05
	0.000000000000000e+00
45	4.500000000000000e-12
	0.000000000000000e+00
	0.000000000000000e+00
	0.000000000000000e+00
	0.000000000000000e+00
	4.760577912345534e-05
	0.000000000000000e+00
46	4.600000000000000e-12
	0.000000000000000e+00
	0.000000000000000e+00
	0.000000000000000e+00
	0.000000000000000e+00
	4.797623012934457e-05
	0.000000000000000e+00
47	4.700000000000000e-12
	0.000000000000000e+00
	0.000000000000000e+00
	0.000000000000000e+00
	0.000000000000000e+00
	4.834691495566141e-05
	0.000000000000000e+00
48	4.800000000000000e-12
	0.000000000000000e+00
	0.000000000000000e+00
	0.000000000000000e+00
	0.000000000000000e+00
	4.872237982403252e-05
	0.000000000000000e+00
49	4.900000000000000e-12
	0.000000000000000e+00
	0.000000000000000e+00
	0.000000000000000e+00
	0.000000000000000e+00
	4.910665112747559e-05
	0.000000000000000e+00
50	5.000000000000000e-12
	0.000000000000000e+00
	0.000000000000000e+00
	0.000000000000000e+00
	0.000000000000000e+00
	4.950310815081998e-05
	0.000000000000000e+00
51	5.100000000000000e-12
	0.000000000000000e+00
	0.000000000000000e+00
	0.000000000000000e+00
	0.000000000000000e+00
	4.889838442694445e-05
	0.000000000000000e+00
52	5.200000000000000e-12
	0.000000000000000e+00
	0.000000000000000e+00
	0.000000000000000e+00
	0.000000000000000e+00
	4.647831485053998e-05
	0.000000000000000e+00
53	5.300000000000000e-12
	0.000000000000000e+00
	0.000000000000000e+00
	0.000000000000000e+00
	0.000000000000000e+00
	4.263984030525106e-05
	0.000000000000000e+00
54	5.400000000000000e-12
	0.000000000000000e+00
	0.000000000000000e+00
	0.000000000000000e+00
	0.000000000000000e+00
	3.777134402916837e-05
	0.000000000000000e+00
55	5.500000000000000e-12
	0.000000000000000e+00
	0.000000000000000e+00
	0.000000000000000e+00
	0.000000000000000e+00
	3.224413485649390e-05
	0.000000000000000e+00
56	5.600000000000000e-12
	0.000000000000000e+00
	0.000000000000000e+00
	0.000000000000000e+00
	0.000000000000000e+00
	2.639696247172709e-05
	0.000000000000000e+00
57	5.700000000000000e-12
	0.000000000000000e+00
	0.000000000000000e+00
	0.000000000000000e+00
	0.000000000000000e+00
	2.052522551386309e-05
	0.000000000000000e+00
58	5.800000000000000e-12
	0.000000000000000e+00
	0.000000000000000e+00
	0.000000000000000e+00
	0.000000000000000e+00
	1.487450993518494e-05
	0.000000000000000e+00
59	5.899999999999999e-12
	0.000000000000000e+00
	0.000000000000000e+00
	0.000000000000000e+00
	0.000000000000000e+00
	9.637953531964033e-06
	0.000000000000000e+00
60	5.999999999999999e-12
	0.000000000000000e+00
	0.000000000000000e+00
	0.000000000000000e+00
	0.000000000000000e+00
	4.956789752446094e-06
	0.000000000000000e+00
61	6.099999999999999e-12
	0.000000000000000e+00
	0.000000000000000e+00
	0.000000000000000e+00
	0.000000000000000e+00
	9.233715279599146e-07
	0.000000000000000e+00
62	6.199999999999999e-12
	0.000000000000000e+00
	0.000000000000000e+00
	0.000000000000000e+00
	0.000000000000000e+00
	-2.414010752141019e-06
	0.000000000000000e+00
63	6.299999999999999e-12
	0.000000000000000e+00
	0.000000000000000e+00
	0.000000000000000e+00
	0.000000000000000e+00
	-5.045146391651534e-06
	0.000000000000000e+00
64	6.399999999999999e-12
	0.000000000000000e+00
	0.000000000000000e+00
	0.000000000000000e+00
	0.000000000000000e+00
	-6.991304526753716e-06
	0.000000000000000e+00
65	6.499999999999999e-12
	0.000000000000000e+00
	0.000000000000000e+00
	0.000000000000000e+00
	0.000000000000000e+00
	-8.298472455027075e-06
	0.000000000000000e+00
66	6.599999999999999e-12
	0.000000000000000e+00
	0.000000000000000e+00
	0.000000000000000e+00
	0.000000000000000e+00
	-9.030792609250223e-06
	0.000000000000000e+00
67	6.699999999999999e-12
	0.000000000000000e+00
	0.000000000000000e+00
	0.000000000000000e+00
	0.000000000000000e+00
	-9.264467667023883e-06
	0.000000000000000e+00
68	6.799999999999999e-12
	0.000000000000000e+00
	0.000000000000000e+00
	0.000000000000000e+00
	0.000000000000000e+00
	-9.082319787819435e-06
	0.000000000000000e+00
69	6.899999999999999e-12
	0.000000000000000e+00
	0.000000000000000e+00
	0.000000000000000e+00
	0.000000000000000e+00
	-8.569116266140176e-06
	0.000000000000000e+00
70	6.999999999999999e-12
	0.000000000000000e+00
	0.000000000000000e+00
	0.000000000000000e+00
	0.000000000000000e+00
	-7.807711449032120e-06
	0.000000000000000e+00
71	7.099999999999999e-12
	0.000000000000000e+00
	0.000000000000000e+00
	0.000000000000000e+00
	0.000000000000000e+00
	-6.876004379117247e-06
	0.000000000000000e+00
72	7.199999999999999e-12
	0.000000000000000e+00
	0.000000000000000e+00
	0.000000000000000e+00
	0.000000000000000e+00
	-5.844673428473627e-06
	0.000000000000000e+00
73	7.300000000000000e-12
	0.000000000000000e+00
	0.000000000000000e+00
	0.000000000000000e+00
	0.000000000000000e+00
	-4.775622647593688e-06
	0.000000000000000e+00
74	7.400000000000000e-12
	0.000000000000000e+00
	0.000000000000000e+00
	0.000000000000000e+00
	0.000000000000000e+00
	-3.721058482506955e-06
	0.000000000000000e+00
75	7.500000000000000e-12
	0.000000000000000e+00
	0.000000000000000e+00
	0.000000000000000e+00
	0.000000000000000e+00
	-2.723108192734092e-06
	0.000000000000000e+00
76	7.600000000000000e-12
	0.000000000000000e+00
	0.000000000000000e+00
	0.000000000000000e+00
	0.000000000000000e+00
	-1.813890676910628e-06
	0.000000000000000e+00
77	7.700000000000000e-12
	0.000000000000000e+00
	0.000000000000000e+00
	0.000000000000000e+00
	0.000000000000000e+00
	-1.015954334704389e-06
	0.000000000000000e+00
78	7.800000000000000e-12
	0.000000000000000e+00
	0.000000000000000e+00
	0.000000000000000e+00
	0.000000000000000e+00
	-3.430030721588074e-07
	0.000000000000000e+00
79	7.900000000000000e-12
	0.000000000000000e+00
	0.000000000000000e+00
	0.000000000000000e+00
	0.000000000000000e+00
	1.991610389075322e-07
	0.000000000000000e+00
80	8.000000000000000e-12
	0.000000000000000e+00
	0.000000000000000e+00
	0.000000000000000e+00
	0.000000000000000e+00
	6.115427527434111e-07
	0.000000000000000e+00
81	8.100000000000000e-12
	0.000000000000000e+00
	0.000000000000000e+00
	0.000000000000000e+00
	0.000000000000000e+00
	9.007642502044621e-07
	0.000000000000000e+00
82	8.200000000000000e-12
	0.000000000000000e+00
	0.000000000000000e+00
	0.000000000000000e+00
	0.000000000000000e+00
	1.077833925830327e-06
	0.000000000000000e+00
83	8.300000000000000e-12
	0.000000000000000e+00
	0.000000000000000e+00
	0.000000000000000e+00
	0.000000000000000e+00
	1.156921282780593e-06
	0.000000000000000e+00
84	8.400000000000000e-12
	0.000000000000000e+00
	0.000000000000000e+00
	0.000000000000000e+00
	0.000000000000000e+00
	1.154181447651449e-06
	0.000000000000000e+00
85	8.500000000000000e-12
	0.000000000000000e+00
	0.000000000000000e+00
	0.000000000000000e+00
	0.000000000000000e+00
	1.086668105528719e-06
	0.000000000000000e+00
86	8.600000000000000e-12
	0.000000000000000e+00
	0.000000000000000e+00
	0.000000000000000e+00
	0.000000000000000e+00
	9.713681606835967e-07
	0.000000000000000e+00
87	8.700000000000000e-12
	0.000000000000000e+00
	0.000000000000000e+00
	0.000000000000000e+00
	0.000000000000000e+00
	8.243848464815168e-07
	0.000000000000000e+00
88	8.800000000000000e-12
	0.000000000000000e+00
	0.000000000000000e+00
	0.000000000000000e+00
	0.000000000000000e+00
	6.602882766668168e-07
	0.000000000000000e+00
89	8.900000000000000e-12
	0.000000000000000e+00
	0.000000000000000e+00
	0.000000000000000e+00
	0.000000000000000e+00
	4.916437427578050e-07
	0.000000000000000e+00
90	9.000000000000000e-12
	0.000000000000000e+00
	0.000000000000000e+00
	0.000000000000000e+00
	0.000000000000000e+00
	3.287188395617391e-07
	0.000000000000000e+00
91	9.100000000000000e-12
	0.000000000000000e+00
	0.000000000000000e+00
	0.000000000000000e+00
	0.000000000000000e+00
	1.793613266720403e-07
	0.000000000000000e+00
92	9.200000000000000e-12
	0.000000000000000e+00
	0.000000000000000e+00
	0.000000000000000e+00
	0.000000000000000e+00
	4.903116925348331e-08
	0.000000000000000e+00
93	9.300000000000000e-12
	0.000000000000000e+00
	0.000000000000000e+00
	0.000000000000000e+00
	0.000000000000000e+00
	-5.903690901241870e-08
	0.000000000000000e+00
94	9.400000000000000e-12
	0.000000000000000e+00
	0.000000000000000e+00
	0.000000000000000e+00
	0.000000000000000e+00
	-1.435692436063263e-07
	0.000000000000000e+00
95	9.500000000000000e-12
	0.000000000000000e+00
	0.000000000000000e+00
	0.000000000000000e+00
	0.000000000000000e+00
	-2.049192539479858e-07
	0.000000000000000e+00
96	9.599999999999999e-12
	0.000000000000000e+00
	0.000000000000000e+00
	0.000000000000000e+00
	0.000000000000000e+00
	-2.446960534058051e-07
	0.000000000000000e+00
97	9.699999999999999e-12
	0.000000000000000e+00
	0.000000000000000e+00
	0.000000000000000e+00
	0.000000000000000e+00
	-2.653862331888834e-07
	0.000000000000000e+00
98	9.799999999999999e-12
	0.000000000000000e+00
	0.000000000000000e+00
	0.000000000000000e+00
	0.000000000000000e+00
	-2.699955842792055e-07
	0.000000000000000e+00
99	9.899999999999999e-12
	0.000000000000000e+00
	0.000000000000000e+00
	0.000000000000000e+00
	0.000000000000000e+00
	-2.617321324560968e-07
	0.000000000000000e+00
100	9.999999999999999e-12
	0.000000000000000e+00
	0.000000000000000e+00
	0.000000000000000e+00
	0.000000000000000e+00
	-2.437454931883565e-07
	0.000000000000000e+00
101	1.010000000000000e-11
	0.000000000000000e+00
	0.000000000000000e+00
	0.000000000000000e+00
	0.000000000000000e+00
	-2.189308376148452e-07
	0.000000000000000e+00
102	1.020000000000000e-11
	0.000000000000000e+00
	0.000000000000000e+00
	0.000000000000000e+00
	0.000000000000000e+00
	-1.897993075349191e-07
	0.000000000000000e+00
103	1.030000000000000e-11
	0.000000000000000e+00
	0.000000000000000e+00
	0.000000000000000e+00
	0.000000000000000e+00
	-1.584110527673071e-07
	0.000000000000000e+00
104	1.040000000000000e-11
	0.000000000000000e+00
	0.000000000000000e+00
	0.000000000000000e+00
	0.000000000000000e+00
	-1.263625857305791e-07
	0.000000000000000e+00
105	1.050000000000000e-11
	0.000000000000000e+00
	0.000000000000000e+00
	0.000000000000000e+00
	0.000000000000000e+00
	-9.481709627237565e-08
	0.000000000000000e+00
106	1.060000000000000e-11
	0.000000000000000e+00
	0.000000000000000e+00
	0.000000000000000e+00
	0.000000000000000e+00
	-6.456482087670290e-08
	0.000000000000000e+00
107	1.070000000000000e-11
	0.000000000000000e+00
	0.000000000000000e+00
	0.000000000000000e+00
	0.000000000000000e+00
	-3.610043721303903e-08
	0.000000000000000e+00
108	1.080000000000000e-11
	0.000000000000000e+00
	0.000000000000000e+00
	0.000000000000000e+00
	0.000000000000000e+00
	-9.705553120889274e-09
	0.000000000000000e+00
109	1.090000000000000e-11
	0.000000000000000e+00
	0.000000000000000e+00
	0.000000000000000e+00
	0.000000000000000e+00
	1.447361638762306e-08
	0.000000000000000e+00
110	1.100000000000000e-11
	0.000000000000000e+00
	0.000000000000000e+00
	0.000000000000000e+00
	0.000000000000000e+00
	3.636068321826310e-08
	0.000000000000000e+00
111	1.110000000000000e-11
	0.000000000000000e+00
	0.000000000000000e+00
	0.000000000000000e+00
	0.000000000000000e+00
	5.590009077365292e-08
	0.000000000000000e+00
112	1.120000000000000e-11
	0.000000000000000e+00
	0.000000000000000e+00
	0.000000000000000e+00
	0.000000000000000e+00
	7.302639658967436e-08
	0.000000000000000e+00
113	1.130000000000000e-11
	0.000000000000000e+00
	0.000000000000000e+00
	0.000000000000000e+00
	0.000000000000000e+00
	8.765113809466597e-08
	0.000000000000000e+00
114	1.140000000000000e-11
	0.000000000000000e+00
	0.000000000000000e+00
	0.000000000000000e+00
	0.000000000000000e+00
	9.966471748112142e-08
	0.000000000000000e+00
115	1.150000000000000e-11
	0.000000000000000e+00
	0.000000000000000e+00
	0.000000000000000e+00
	0.000000000000000e+00
	1.089495052543866e-07
	0.000000000000000e+00
116	1.160000000000000e-11
	0.000000000000000e+00
	0.000000000000000e+00
	0.000000000000000e+00
	0.000000000000000e+00
	1.153997752526967e-07
	0.000000000000000e+00
117	1.170000000000000e-11
	0.000000000000000e+00
	0.000000000000000e+00
	0.000000000000000e+00
	0.000000000000000e+00
	1.189440927358432e-07
	0.000000000000000e+00
118	1.180000000000000e-11
	0.000000000000000e+00
	0.000000000000000e+00
	0.000000000000000e+00
	0.000000000000000e+00
	1.195662734908765e-07
	0.000000000000000e+00
119	1.190000000000000e-11
	0.000000000000000e+00
	0.000000000000000e+00
	0.000000000000000e+00
	0.000000000000000e+00
	1.173218742041113e-07
	0.000000000000000e+00
120	1.200000000000000e-11
	0.000000000000000e+00
	0.000000000000000e+00
	0.000000000000000e+00
	0.000000000000000e+00
	1.123482082800924e-07
	0.000000000000000e+00
121	1.210000000000000e-11
	0.000000000000000e+00
	0.000000000000000e+00
	0.000000000000000e+00
	0.000000000000000e+00
	1.048669587480494e-07
	0.000000000000000e+00
122	1.220000000000000e-11
	0.000000000000000e+00
	0.000000000000000e+00
	0.000000000000000e+00
	0.000000000000000e+00
	9.517945419548218e-08
	0.000000000000000e+00
123	1.230000000000000e-11
	0.000000000000000e+00
	0.000000000000000e+00
	0.000000000000000e+00
	0.000000000000000e+00
	8.365548986702151e-08
	0.000000000000000e+00
124	1.240000000000000e-11
	0.000000000000000e+00
	0.000000000000000e+00
	0.000000000000000e+00
	0.000000000000000e+00
	7.071715604361462e-08
	0.000000000000000e+00
125	1.250000000000000e-11
	0.000000000000000e+00
	0.000000000000000e+00
	0.000000000000000e+00
	0.000000000000000e+00
	5.681945834371049e-08
	0.000000000000000e+00
126	1.260000000000000e-11
	0.000000000000000e+00
	0.000000000000000e+00
	0.000000000000000e+00
	0.000000000000000e+00
	4.242959120395160e-08
	0.000000000000000e+00
127	1.270000000000000e-11
	0.000000000000000e+00
	0.000000000000000e+00
	0.000000000000000e+00
	0.000000000000000e+00
	2.800659364383444e-08
	0.000000000000000e+00
128	1.280000000000000e-11
	0.000000000000000e+00
	0.000000000000000e+00
	0.000000000000000e+00
	0.000000000000000e+00
	1.398282936133383e-08
	0.000000000000000e+00
129	1.290000000000000e-11
	0.000000000000000e+00
	0.000000000000000e+00
	0.000000000000000e+00
	0.000000000000000e+00
	7.483525567385410e-10
	0.000000000000000e+00
130	1.300000000000000e-11
	0.000000000000000e+00
	0.000000000000000e+00
	0.000000000000000e+00
	0.000000000000000e+00
	-1.136119312309924e-08
	0.000000000000000e+00
131	1.310000000000000e-11
	0.000000000000000e+00
	0.000000000000000e+00
	0.000000000000000e+00
	0.000000000000000e+00
	-2.207289021731999e-08
	0.000000000000000e+00
132	1.320000000000000e-11
	0.000000000000000e+00
	0.000000000000000e+00
	0.000000000000000e+00
	0.000000000000000e+00
	-3.118116194350725e-08
	0.000000000000000e+00
133	1.330000000000000e-11
	0.000000000000000e+00
	0.000000000000000e+00
	0.000000000000000e+00
	0.000000000000000e+00
	-3.854902335926509e-08
	0.000000000000000e+00
134	1.340000000000000e-11
	0.000000000000000e+00
	0.000000000000000e+00
	0.000000000000000e+00
	0.000000000000000e+00
	-4.410646804023696e-08
	0.000000000000000e+00
135	1.350000000000000e-11
	0.000000000000000e+00
	0.000000000000000e+00
	0.000000000000000e+00
	0.000000000000000e+00
	-4.784656159321851e-08
	0.000000000000000e+00
136	1.360000000000000e-11
	0.000000000000000e+00
	0.000000000000000e+00
	0.000000000000000e+00
	0.000000000000000e+00
	-4.981981137525626e-08
	0.000000000000000e+00
137	1.370000000000000e-11
	0.000000000000000e+00
	0.000000000000000e+00
	0.000000000000000e+00
	0.000000000000000e+00
	-5.012732595057972e-08
	0.000000000000000e+00
138	1.380000000000000e-11
	0.000000000000000e+00
	0.000000000000000e+00
	0.000000000000000e+00
	0.000000000000000e+00
	-4.891319102882491e-08
	0.000000000000000e+00
139	1.390000000000000e-11
	0.000000000000000e+00
	0.000000000000000e+00
	0.000000000000000e+00
	0.000000000000000e+00
	-4.635639267698497e-08
	0.000000000000000e+00
140	1.400000000000000e-11
	0.000000000000000e+00
	0.000000000000000e+00
	0.000000000000000e+00
	0.000000000000000e+00
	-4.266253133784037e-08
	0.000000000000000e+00
141	1.410000000000000e-11
	0.000000000000000e+00
	0.000000000000000e+00
	0.000000000000000e+00
	0.000000000000000e+00
	-3.805550378008578e-08
	0.000000000000000e+00
142	1.420000000000000e-11
	0.000000000000000e+00
	0.000000000000000e+00
	0.000000000000000e+00
	0.000000000000000e+00
	-3.276929033339702e-08
	0.000000000000000e+00
143	1.430000000000000e-11
	0.000000000000000e+00
	0.000000000000000e+00
	0.000000000000000e+00
	0.000000000000000e+00
	-2.703997134480581e-08
	0.000000000000000e+00
144	1.440000000000000e-11
	0.000000000000000e+00
	0.000000000000000e+00
	0.000000000000000e+00
	0.000000000000000e+00
	-2.109810449830945e-08
	0.000000000000000e+00
145	1.450000000000000e-11
	0.000000000000000e+00
	0.000000000000000e+00
	0.000000000000000e+00
	0.000000000000000e+00
	-1.516161491680366e-08
	0.000000000000000e+00
146	1.460000000000000e-11
	0.000000000000000e+00
	0.000000000000000e+00
	0.000000000000000e+00
	0.000000000000000e+00
	-9.429372811384623e-09
	0.000000000000000e+00
147	1.470000000000000e-11
	0.000000000000000e+00
	0.000000000000000e+00
	0.000000000000000e+00
	0.000000000000000e+00
	-4.075649211340085e-09
	0.000000000000000e+00
148	1.480000000000000e-11
	0.000000000000000e+00
	0.000000000000000e+00
	0.000000000000000e+00
	0.000000000000000e+00
	7.543587771531564e-10
	0.000000000000000e+00
149	1.490000000000000e-11
	0.000000000000000e+00
	0.000000000000000e+00
	0.000000000000000e+00
	0.000000000000000e+00
	4.947760519166564e-09
	0.000000000000000e+00
150	1.500000000000001e-11
	0.000000000000000e+00
	0.000000000000000e+00
	0.000000000000000e+00
	0.000000000000000e+00
	8.425829420128643e-09
	0.000000000000000e+00
151	1.510000000000001e-11
	0.000000000000000e+00
	0.000000000000000e+00
	0.000000000000000e+00
	0.000000000000000e+00
	1.114441167559406e-08
	0.000000000000000e+00
152	1.520000000000001e-11
	0.000000000000000e+00
	0.000000000000000e+00
	0.000000000000000e+00
	0.000000000000000e+00
	1.309288541846569e-08
	0.000000000000000e+00
153	1.530000000000001e-11
	0.000000000000000e+00
	0.000000000000000e+00
	0.000000000000000e+00
	0.000000000000000e+00
	1.429174961710790e-08
	0.000000000000000e+00
154	1.540000000000001e-11
	0.000000000000000e+00
	0.000000000000000e+00
	0.000000000000000e+00
	0.000000000000000e+00
	1.478900123654829e-08
	0.000000000000000e+00
155	1.550000000000001e-11
	0.000000000000000e+00
	0.000000000000000e+00
	0.000000000000000e+00
	0.000000000000000e+00
	1.465552937115725e-08
	0.000000000000000e+00
156	1.560000000000002e-11
	0.000000000000000e+00
	0.000000000000000e+00
	0.000000000000000e+00
	0.000000000000000e+00
	1.397980937318099e-08
	0.000000000000000e+00
157	1.570000000000002e-11
	0.000000000000000e+00
	0.000000000000000e+00
	0.000000000000000e+00
	0.000000000000000e+00
	1.286221336837041e-08
	0.000000000000000e+00
158	1.580000000000002e-11
	0.000000000000000e+00
	0.000000000000000e+00
	0.000000000000000e+00
	0.000000000000000e+00
	1.140926324047251e-08
	0.000000000000000e+00
159	1.590000000000002e-11
	0.000000000000000e+00
	0.000000000000000e+00
	0.000000000000000e+00
	0.000000000000000e+00
	9.728137963699877e-09
	0.000000000000000e+00
160	1.600000000000002e-11
	0.000000000000000e+00
	0.000000000000000e+00
	0.000000000000000e+00
	0.000000000000000e+00
	7.921711225289886e-09
	0.000000000000000e+00
161	1.610000000000002e-11
	0.000000000000000e+00
	0.000000000000000e+00
	0.000000000000000e+00
	0.000000000000000e+00
	6.084341748211429e-09
	0.000000000000000e+00
162	1.620000000000003e-11
	0.000000000000000e+00
	0.000000000000000e+00
	0.000000000000000e+00
	0.000000000000000e+00
	4.298573130115958e-09
	0.000000000000000e+00
163	1.630000000000003e-11
	0.000000000000000e+00
	0.000000000000000e+00
	0.000000000000000e+00
	0.000000000000000e+00
	2.632828606879222e-09
	0.000000000000000e+00
164	1.640000000000003e-11
	0.000000000000000e+00
	0.000000000000000e+00
	0.000000000000000e+00
	0.000000000000000e+00
	1.140115192828808e-09
	0.000000000000000e+00
165	1.650000000000003e-11
	0.000000000000000e+00
	0.000000000000000e+00
	0.000000000000000e+00
	0.000000000000000e+00
	-1.423131963320498e-10
	0.000000000000000e+00
166	1.660000000000003e-11
	0.000000000000000e+00
	0.000000000000000e+00
	0.000000000000000e+00
	0.000000000000000e+00
	-1.192438213285154e-09
	0.000000000000000e+00
167	1.670000000000003e-11
	0.000000000000000e+00
	0.000000000000000e+00
	0.000000000000000e+00
	0.000000000000000e+00
	-2.002250110331421e-09
	0.000000000000000e+00
168	1.680000000000004e-11
	0.000000000000000e+00
	0.000000000000000e+00
	0.000000000000000e+00
	0.000000000000000e+00
	-2.575981351837374e-09
	0.000000000000000e+00
169	1.690000000000004e-11
	0.000000000000000e+00
	0.000000000000000e+00
	0.000000000000000e+00
	0.000000000000000e+00
	-2.927980517160721e-09
	0.000000000000000e+00
170	1.700000000000004e-11
	0.000000000000000e+00
	0.000000000000000e+00
	0.000000000000000e+00
	0.000000000000000e+00
	-3.080401854679397e-09
	0.000000000000000e+00
171	1.710000000000004e-11
	0.000000000000000e+00
	0.000000000000000e+00
	0.000000000000000e+00
	0.000000000000000e+00
	-3.060869825153176e-09
	0.000000000000000e+00
172	1.720000000000004e-11
	0.000000000000000e+00
	0.000000000000000e+00
	0.000000000000000e+00
	0.000000000000000e+00
	-2.900253315469347e-09
	0.000000000000000e+00
173	1.730000000000004e-11
	0.000000000000000e+00
	0.000000000000000e+00
	0.000000000000000e+00
	0.000000000000000e+00
	-2.630654239442444e-09
	0.000000000000000e+00
174	1.740000000000004e-11
	0.000000000000000e+00
	0.000000000000000e+00
	0.000000000000000e+00
	0.000000000000000e+00
	-2.283683228775370e-09
	0.000000000000000e+00
175	1.750000000000005e-11
	0.000000000000000e+00
	0.000000000000000e+00
	0.000000000000000e+00
	0.000000000000000e+00
	-1.889063944706865e-09
	0.000000000000000e+00
176	1.760000000000005e-11
	0.000000000000000e+00
	0.000000000000000e+00
	0.000000000000000e+00
	0.000000000000000e+00
	-1.473579517240287e-09
	0.000000000000000e+00
177	1.770000000000005e-11
	0.000000000000000e+00
	0.000000000000000e+00
	0.000000000000000e+00
	0.000000000000000e+00
	-1.060351347434418e-09
	0.000000000000000e+00
178	1.780000000000005e-11
	0.000000000000000e+00
	0.000000000000000e+00
	0.000000000000000e+00
	0.000000000000000e+00
	-6.684228595112105e-10
	0.000000000000000e+00
179	1.790000000000005e-11
	0.000000000000000e+00
	0.000000000000000e+00
	0.000000000000000e+00
	0.000000000000000e+00
	-3.126089522616999e-10
	0.000000000000000e+00
180	1.800000000000005e-11
	0.000000000000000e+00
	0.000000000000000e+00
	0.000000000000000e+00
	0.000000000000000e+00
	-3.565493525331883e-12
	0.000000000000000e+00
181	1.810000000000006e-11
	0.000000000000000e+00
	0.000000000000000e+00