Title: ** OR 2 INPUT GATE ****
Date: 04-10-2021 20:01:17
Plotname: transient analysis
Flags: real
No. Variables: 72      
No. Points: 601     
Variables: 0 time time
 1 V(1,0) voltage
 2 V(2,0) voltage
 3 V(11,0) voltage
 4 V(12,0) voltage
 5 VINC.I current
 6 VINA.I current
 7 VINB.I current
 8 IB1.I current
 9 IB2.I current
 10 B1.I current
 11 B1.Ij current
 12 B1.Ic current
 13 B1.Ir current
 14 RB1.I current
 15 B2.I current
 16 B2.Ij current
 17 B2.Ic current
 18 B2.Ir current
 19 RB2.I current
 20 B3.I current
 21 B3.Ij current
 22 B3.Ic current
 23 B3.Ir current
 24 RB3.I current
 25 B4.I current
 26 B4.Ij current
 27 B4.Ic current
 28 B4.Ir current
 29 RB4.I current
 30 B5.I current
 31 B5.Ij current
 32 B5.Ic current
 33 B5.Ir current
 34 RB5.I current
 35 B6.I current
 36 B6.Ij current
 37 B6.Ic current
 38 B6.Ir current
 39 RB6.I current
 40 B7.I current
 41 B7.Ij current
 42 B7.Ic current
 43 B7.Ir current
 44 RB7.I current
 45 B8.I current
 46 B8.Ij current
 47 B8.Ic current
 48 B8.Ir current
 49 RB8.I current
 50 B9.I current
 51 B9.Ij current
 52 B9.Ic current
 53 B9.Ir current
 54 RB9.I current
 55 L1.I current
 56 L2.I current
 57 L3.I current
 58 L4.I current
 59 L5.I current
 60 L6.I current
 61 L7.I current
 62 L8.I current
 63 B1.P phase
 64 B2.P phase
 65 B3.P phase
 66 B4.P phase
 67 B5.P phase
 68 B6.P phase
 69 B7.P phase
 70 B8.P phase
 71 B9.P phase
Values:
0	0.000000000000000e+00
	0.000000000000000e+00
	0.000000000000000e+00
	0.000000000000000e+00
	0.000000000000000e+00
	0.000000000000000e+00
	0.000000000000000e+00
	0.000000000000000e+00
	0.000000000000000e+00
	0.000000000000000e+00
	0.000000000000000e+00
	0.000000000000000e+00
	0.000000000000000e+00
	0.000000000000000e+00
	0.000000000000000e+00
	0.000000000000000e+00
	0.000000000000000e+00
	0.000000000000000e+00
	0.000000000000000e+00
	0.000000000000000e+00
	0.000000000000000e+00
	0.000000000000000e+00
	0.000000000000000e+00
	0.000000000000000e+00
	0.000000000000000e+00
	0.000000000000000e+00
	0.000000000000000e+00
	0.000000000000000e+00
	0.000000000000000e+00
	0.000000000000000e+00
	0.000000000000000e+00
	0.000000000000000e+00
	0.000000000000000e+00
	0.000000000000000e+00
	0.000000000000000e+00
	0.000000000000000e+00
	0.000000000000000e+00
	0.000000000000000e+00
	0.000000000000000e+00
	0.000000000000000e+00
	0.000000000000000e+00
	0.000000000000000e+00
	0.000000000000000e+00
	0.000000000000000e+00
	0.000000000000000e+00
	0.000000000000000e+00
	0.000000000000000e+00
	0.000000000000000e+00
	0.000000000000000e+00
	0.000000000000000e+00
	0.000000000000000e+00
	0.000000000000000e+00
	0.000000000000000e+00
	0.000000000000000e+00
	0.000000000000000e+00
	0.000000000000000e+00
	0.000000000000000e+00
	0.000000000000000e+00
	0.000000000000000e+00
	0.000000000000000e+00
	0.000000000000000e+00
	0.000000000000000e+00
	0.000000000000000e+00
	0.000000000000000e+00
	0.000000000000000e+00
	0.000000000000000e+00
	0.000000000000000e+00
	0.000000000000000e+00
	0.000000000000000e+00
	0.000000000000000e+00
	0.000000000000000e+00
	0.000000000000000e+00
1	1.000000000000000e-12
	0.000000000000000e+00
	0.000000000000000e+00
	3.366066553501070e-05
	0.000000000000000e+00
	5.299706332476771e-07
	2.602193874288174e-06
	2.602193874288174e-06
	3.360000000000000e-05
	2.100000000000000e-05
	7.456759058846157e-06
	4.964637985440373e-06
	2.287848854274163e-06
	2.042722191316217e-07
	3.373995298914975e-06
	7.456759058846157e-06
	4.964637985440373e-06
	2.287848854274163e-06
	2.042722191316217e-07
	3.373995298914975e-06
	-8.573254098443220e-06
	-5.707418738632957e-06
	-2.630930822120899e-06
	-2.349045376893659e-07
	-3.875353257269090e-06
	-8.573254098443220e-06
	-5.707418738632957e-06
	-2.630930822120899e-06
	-2.349045376893659e-07
	-3.875353257269090e-06
	9.873701547694907e-07
	6.574161632386265e-07
	3.029085823889902e-07
	2.704540914187408e-08
	4.493525921806701e-07
	1.173646675458063e-05
	7.812449028115577e-06
	3.602376929213817e-06
	3.216407972512336e-07
	5.308425144174262e-06
	1.261870690103016e-06
	8.401854175213943e-07
	3.871209059765712e-07
	3.456436660505100e-08
	5.707045867319030e-07
	-1.355336735333030e-07
	-9.024202898582909e-08
	-4.157921466653340e-08
	-3.712429880940482e-09
	-6.123595679901826e-08
	9.981804043103105e-06
	6.645190571945169e-06
	3.063120563685974e-06
	2.734929074719619e-07
	4.512153556971943e-06
	-1.586922752454206e-05
	-1.586922752454206e-05
	-2.602193874288174e-06
	-2.602193874288174e-06
	1.861544950915878e-06
	1.430495428892788e-06
	-5.299706332476771e-07
	-1.792400905802574e-06
	3.162717039270323e-02
	3.162717039270323e-02
	-5.287109859085690e-02
	-5.287109859085690e-02
	7.304688996996687e-03
	6.798670186603936e-02
	7.569310275402841e-03
	-1.128025601547328e-03
	5.113913758149524e-02
2	2.000000000000000e-12
	0.000000000000000e+00
	0.000000000000000e+00
	5.789632431256432e-05
	0.000000000000000e+00
	2.000347049562929e-06
	7.885013232484136e-06
	7.885013232484136e-06
	6.720000000000001e-05
	4.200000000000000e-05
	1.794287704310013e-05
	1.749239769069243e-05
	1.379141423551313e-07
	3.125652100525723e-07
	5.162687093746355e-06
	1.794287704310013e-05
	1.749239769069243e-05
	1.379141423551313e-07
	3.125652100525723e-07
	5.162687093746355e-06
	-2.408829560676916e-05
	-2.182210008128174e-05
	-1.832050739510920e-06
	-4.341447859765007e-07
	-7.162332524564887e-06
	-2.408829560676916e-05
	-2.182210008128174e-05
	-1.832050739510920e-06
	-4.341447859765007e-07
	-7.162332524564887e-06
	3.001769245960520e-06
	2.637187303261887e-06
	3.101670841573673e-07
	5.441485854126505e-08
	9.040890307998348e-07
	3.154648644564012e-05
	2.909277917933200e-05
	1.887004785370105e-06
	5.667024809380157e-07
	9.352973020793495e-06
	5.911581988398095e-06
	4.427410880291271e-06
	1.371114106994152e-06
	1.130570011126726e-07
	1.866724474786912e-06
	-1.642820240958606e-06
	-9.891129084772692e-07
	-6.204404531445447e-07
	-3.326687933679217e-08
	-5.487320302976028e-07
	2.640015976509878e-05
	2.458198279623040e-05
	1.347769333828785e-06
	4.704076350395852e-07
	7.760901382381276e-06
	-3.161993846003975e-05
	-3.161993846003975e-05
	-7.885013232484136e-06
	-7.885013232484136e-06
	3.960123079920499e-06
	4.395709254864341e-06
	-2.000347049562929e-06
	-5.288590086683523e-06
	1.116483573540231e-01
	1.116483573540231e-01
	-2.034572605340602e-01
	-2.034572605340602e-01
	2.930627595454561e-02
	2.557599262986900e-01
	3.989716827733418e-02
	-1.236422638187563e-02
	1.902375607987299e-01
3	3.000000000000000e-12
	0.000000000000000e+00
	0.000000000000000e+00
	5.369064448291955e-05
	0.000000000000000e+00
	4.542022750383303e-06
	1.484789911580251e-05
	1.484789911580251e-05
	1.008000000000000e-04
	6.300000000000000e-05
	2.895451237880980e-05
	3.061778806250522e-05
	-1.897297015483342e-06
	2.340213317879200e-07
	3.865365915418473e-06
	2.895451237880980e-05
	3.061778806250522e-05
	-1.897297015483342e-06
	2.340213317879200e-07
	3.865365915418473e-06
	-4.105511813955804e-05
	-4.219415318825936e-05
	1.584242693858717e-06
	-4.452076451574025e-07
	-7.344842780786975e-06
	-4.105511813955804e-05
	-4.219415318825936e-05
	1.584242693858717e-06
	-4.452076451574025e-07
	-7.344842780786975e-06
	5.311675751835690e-06
	5.426308931245049e-06
	-1.750787664209974e-07
	6.044558701163872e-08
	1.004288050037611e-06
	5.245983830242936e-05
	5.424082046546048e-05
	-2.327997470524733e-06
	5.470153074936129e-07
	9.028051905614324e-06
	1.152453037343376e-05
	1.137117965280844e-05
	-2.002285426969490e-08
	1.733735748950144e-07
	2.862632940487117e-06
	-3.842271644993350e-06
	-3.534730670195800e-06
	-2.360384309904457e-07
	-7.150254380710424e-08
	-1.179423403003781e-06
	4.409028936160133e-05
	4.576725593800175e-05
	-2.113203062824135e-06
	4.362364864237214e-07
	7.197137330150074e-06
	-4.737260906480825e-05
	-4.737260906480825e-05
	-1.484789911580251e-05
	-1.484789911580251e-05
	6.054781870383484e-06
	8.484369323003751e-06
	-4.542022750383303e-06
	-9.682319996692375e-06
	1.962755561314001e-01
	1.962755561314001e-01
	-4.013773583742775e-01
	-4.013773583742775e-01
	6.032891008883160e-02
	4.911716025913045e-01
	1.026230942848344e-01
	-4.419852234323685e-02
	3.597666315652878e-01
4	4.000000000000000e-12
	0.000000000000000e+00
	0.000000000000000e+00
	3.870178972449777e-05
	0.000000000000000e+00
	6.581384893956389e-06
	2.004268090855363e-05
	2.004268090855363e-05
	1.344000000000000e-04
	8.400000000000000e-05
	4.099401497452870e-05
	4.027260027982756e-05
	5.476456557580975e-07
	1.737690389430431e-07
	2.870169634339871e-06
	4.099401497452870e-05
	4.027260027982756e-05
	5.476456557580975e-07
	1.737690389430431e-07
	2.870169634339871e-06
	-5.799455254523067e-05
	-5.874156775303600e-05
	1.073570479166951e-06
	-3.265552713616140e-07
	-5.387367340783865e-06
	-5.799455254523067e-05
	-5.874156775303600e-05
	1.073570479166951e-06
	-3.265552713616140e-07
	-5.387367340783865e-06
	7.295595777578802e-06
	7.697085628205157e-06
	-4.347126084047042e-07
	3.322275777834855e-08
	5.519876681760922e-07
	7.343187582590299e-05
	7.362135863033014e-05
	-6.055367622435861e-07
	4.160539578164558e-07
	6.866639151130325e-06
	1.632549768966970e-05
	1.790239351839668e-05
	-1.674615888327482e-06
	9.772005960049764e-08
	1.613490762523309e-06
	-5.448086277555431e-06
	-6.295826669803782e-06
	8.900461623347272e-07
	-4.230577008637738e-08
	-6.978271354454001e-07
	6.204032560784022e-05
	6.234064206953730e-05
	-6.147685032086298e-07
	3.144520415115444e-07
	5.187907469771820e-06
	-6.326263200223207e-05
	-6.326263200223207e-05
	-2.004268090855363e-05
	-2.004268090855363e-05
	7.874735995535853e-06
	1.189860262088419e-05
	-6.581384893956389e-06
	-1.301456213920089e-05
	2.594131457382448e-01
	2.594131457382448e-01
	-5.750817646382497e-01
	-5.750817646382497e-01
	8.562777408327360e-02
	6.947400042883005e-01
	1.619903570103523e-01
	-7.877929446768142e-02
	5.001343078819663e-01
5	5.000000000000000e-12
	0.000000000000000e+00
	0.000000000000000e+00
	4.183324591117598e-05
	0.000000000000000e+00
	8.163383526570387e-06
	2.510586556519496e-05
	2.510586556519496e-05
	1.680000000000000e-04
	1.050000000000000e-04
	5.032299586657612e-05
	4.952869961014114e-05
	5.706052998316819e-07
	2.236909566033011e-07
	3.694737537966551e-06
	5.032299586657612e-05
	4.952869961014114e-05
	5.706052998316819e-07
	2.236909566033011e-07
	3.694737537966551e-06
	-7.326375801503769e-05
	-7.159302680919422e-05
	-1.332611598784640e-06
	-3.381196070588322e-07
	-5.578150739236693e-06
	-7.326375801503769e-05
	-7.159302680919422e-05
	-1.332611598784640e-06
	-3.381196070588322e-07
	-5.578150739236693e-06
	9.180310972994144e-06
	9.003820523931677e-06
	1.557226022721789e-07
	2.076784679028931e-08
	3.450524908043914e-07
	9.118711954989505e-05
	8.883107681096689e-05
	1.882960917057513e-06
	4.730818218706490e-07
	7.807838619764181e-06
	2.245378243532923e-05
	2.161885337755055e-05
	7.772691216888340e-07
	5.765993608984375e-08
	9.520437730901002e-07
	-7.567516577254249e-06
	-7.475362774981416e-06
	-8.575393518424555e-08
	-6.399867088588033e-09
	-1.055648179560912e-07
	7.732212100622971e-05
	7.579753235401733e-05
	1.184693529184062e-06
	3.398951230283048e-07
	5.607673714634849e-06
	-7.914182040474533e-05
	-7.914182040474533e-05
	-2.510586556519496e-05
	-2.510586556519496e-05
	9.716359190509353e-06
	1.554280158177397e-05
	-8.163383526570387e-06
	-1.664818208543644e-05
	3.209512983899646e-01
	3.209512983899646e-01
	-7.246833490670042e-01
	-7.246833490670042e-01
	1.002100853755479e-01
	8.826807434253154e-01
	1.960172903376675e-01
	-9.357855194459781e-02
	6.224875710169352e-01
6	5.999999999999999e-12
	0.000000000000000e+00
	0.000000000000000e+00
	1.721108065566959e-05
	0.000000000000000e+00
	9.902171405451147e-06
	2.842267147686622e-05
	2.842267147686622e-05
	1.680000000000000e-04
	1.050000000000000e-04
	5.076971114018803e-05
	5.549272147330196e-05
	-4.759688640576822e-06
	3.667830746289310e-08
	6.058211805699342e-07
	5.076971114018803e-05
	5.549272147330196e-05
	-4.759688640576822e-06
	3.667830746289310e-08
	6.058211805699342e-07
	-7.636377160297421e-05
	-8.073704457508822e-05
	4.567000229583610e-06
	-1.937272574695924e-07
	-3.196028334068999e-06
	-7.636377160297421e-05
	-8.073704457508822e-05
	4.567000229583610e-06
	-1.937272574695924e-07
	-3.196028334068999e-06
	9.722101868307124e-06
	9.931236412549558e-06
	-2.267323145899641e-07
	1.759777034753106e-08
	2.923824772175462e-07
	9.233354241372765e-05
	9.893167575806911e-05
	-6.849494899154231e-06
	2.513615548127597e-07
	4.148522231166286e-06
	2.593807542135294e-05
	2.551642422280483e-05
	3.152194511699301e-07
	1.064317473781814e-07
	1.757332547032499e-06
	-9.414444591315685e-06
	-8.653433826653229e-06
	-7.186978705329225e-07
	-4.231289412953303e-08
	-6.979446454355963e-07
	7.942809985394439e-05
	8.495418742930331e-05
	-5.665927605686224e-06
	1.398400303273155e-07
	2.307115369392707e-06
	-7.920043837293822e-05
	-7.920043837293822e-05
	-2.842267147686622e-05
	-2.842267147686622e-05
	9.599123254123530e-06
	1.831759534791330e-05
	-9.902171405451147e-06
	-1.886014904119740e-05
	3.612638926068917e-01
	3.612638926068917e-01
	-8.443886910170393e-01
	-8.443886910170393e-01
	1.105722470237411e-01
	1.035809688168388e+00
	2.319520112013551e-01
	-1.083799740692850e-01
	7.121909649254148e-01
7	6.999999999999999e-12
	0.000000000000000e+00
	0.000000000000000e+00
	-1.544917221870356e-05
	0.000000000000000e+00
	1.022276891866120e-05
	2.749228331258034e-05
	2.749228331258034e-05
	1.680000000000000e-04
	1.050000000000000e-04
	5.519924642192322e-05
	5.382845428212363e-05
	1.480505918158919e-06
	-1.097137783593347e-07
	-1.812159156953572e-06
	5.519924642192322e-05
	5.382845428212363e-05
	1.480505918158919e-06
	-1.097137783593347e-07
	-1.812159156953572e-06
	-8.101141775346126e-05
	-8.259040216452456e-05
	1.501783809639034e-06
	7.720060142427563e-08
	1.273622064246071e-06
	-8.101141775346126e-05
	-8.259040216452456e-05
	1.501783809639034e-06
	7.720060142427563e-08
	1.273622064246071e-06
	9.661086724786792e-06
	1.008824526380546e-05
	-4.160602143253399e-07
	-1.109832469333070e-08
	-1.843958412183709e-07
	9.840736036049757e-05
	1.003449158550986e-04
	-1.802660128534826e-06
	-1.348953660662161e-07
	-2.226340561204247e-06
	2.551092133395877e-05
	2.811890191146585e-05
	-2.611882714897432e-06
	3.902137390346513e-09
	6.442958241287080e-08
	-9.167344689819297e-06
	-1.026328632721265e-05
	1.120324759685707e-06
	-2.438312229235512e-08
	-4.021958316264762e-07
	8.481351886637645e-05
	8.521728180810311e-05
	-2.782384174496907e-07
	-1.255245242769665e-07
	-2.070934613767234e-06
	-7.939375492407282e-05
	-7.939375492407282e-05
	-2.749228331258034e-05
	-2.749228331258034e-05
	9.212490151854382e-06
	1.832838700574502e-05
	-1.022276891866120e-05
	-1.797626935662915e-05
	3.499559169429826e-01
	3.499559169429826e-01
	-8.706159081701701e-01
	-8.706159081701701e-01
	1.123276809647758e-01
	1.060427684764137e+00
	2.561142189815923e-01
	-1.286456266089773e-01
	7.148677532934370e-01
8	8.000000000000000e-12
	0.000000000000000e+00
	0.000000000000000e+00
	-7.738616488931147e-06
	0.000000000000000e+00
	9.141200843374946e-06
	2.624152508189291e-05
	2.624152508189291e-05
	1.680000000000000e-04
	1.050000000000000e-04
	5.282717273798519e-05
	5.158030540123633e-05
	1.235338079498491e-06
	1.152925725037118e-08
	1.904304947980664e-07
	5.282717273798519e-05
	5.158030540123633e-05
	1.235338079498491e-06
	1.152925725037118e-08
	1.904304947980664e-07
	-8.067955700219916e-05
	-7.976582494109687e-05
	-1.012763908129664e-06
	9.903184702737262e-08
	1.633784492738969e-06
	-8.067955700219916e-05
	-7.976582494109687e-05
	-1.012763908129664e-06
	9.903184702737262e-08
	1.633784492738969e-06
	9.628027914343317e-06
	9.384815536022357e-06
	2.612230752925395e-07
	-1.801069697158074e-08
	-2.992431480221100e-07
	9.896838844355256e-05
	9.709470477656682e-05
	1.999779079867462e-06
	-1.260954128817235e-07
	-2.081104343811002e-06
	2.648318128390298e-05
	2.607700153645649e-05
	4.967051786390965e-07
	-9.052543119261512e-08
	-1.494697686430597e-06
	-9.356051566707366e-06
	-9.801016233668328e-06
	4.014130649396847e-07
	4.355160202127858e-08
	7.183769405571724e-07
	8.332533898253370e-05
	8.170665568123800e-05
	1.681559560268271e-06
	-6.287625897256557e-08
	-1.037348054816508e-06
	-7.925600823158752e-05
	-7.925600823158752e-05
	-2.624152508189291e-05
	-2.624152508189291e-05
	9.487983536824969e-06
	1.747135391217654e-05
	-9.141200843374946e-06
	-1.730742259665665e-05
	3.347541504363081e-01
	3.347541504363081e-01
	-8.309504200163540e-01
	-8.309504200163540e-01
	1.044656312855273e-01
	1.005260857577538e+00
	2.371444344240203e-01
	-1.228212645144967e-01
	6.796395871807672e-01
9	9.000000000000000e-12
	0.000000000000000e+00
	0.000000000000000e+00
	4.036131936540748e-06
	0.000000000000000e+00
	9.079416071441874e-06
	2.670282970611738e-05
	2.670282970611738e-05
	1.680000000000000e-04
	1.050000000000000e-04
	5.149487507747833e-05
	5.241088267480589e-05
	-9.406907530788115e-07
	2.468315575124962e-08
	4.076954361250698e-07
	5.149487507747833e-05
	5.241088267480589e-05
	-9.406907530788115e-07
	2.468315575124962e-08
	4.076954361250698e-07
	-7.922696552271857e-05
	-7.808069330534536e-05
	-1.148805433095879e-06
	2.533215722661005e-09
	4.179189511937647e-08
	-7.922696552271857e-05
	-7.808069330534536e-05
	-1.148805433095879e-06
	2.533215722661005e-09
	4.179189511937647e-08
	9.531434523724975e-06
	9.172879466734674e-06
	3.493098210877618e-07
	9.245235902539804e-09
	1.536072424097994e-07
	9.702324970789795e-05
	9.570379503866237e-05
	1.298313793143590e-06
	2.114087609198403e-08
	3.489133193787658e-07
	2.622264611550117e-05
	2.431497451726964e-05
	1.891577276942817e-06
	1.609432128872026e-08
	2.657390799247950e-07
	-9.763979025773814e-06
	-8.565342652001308e-06
	-1.206257424047883e-06
	7.621050275376830e-09
	1.257080457794116e-07
	8.163083667031081e-05
	8.113659844515879e-05
	4.614446531676176e-07
	3.279357198439358e-08
	5.410364526194033e-07
	-7.913281757628383e-05
	-7.913281757628383e-05
	-2.670282970611738e-05
	-2.670282970611738e-05
	9.734364847432311e-06
	1.733201716033596e-05
	-9.079416071441874e-06
	-1.774656785180698e-05
	3.403608656382184e-01
	3.403608656382184e-01
	-8.080906809118475e-01
	-8.080906809118475e-01
	1.020981697067897e-01
	9.830761320601503e-01
	2.208446372530559e-01
	-1.072724019794598e-01
	6.740145686640918e-01
10	9.999999999999999e-12
	0.000000000000000e+00
	0.000000000000000e+00
	4.433019790457358e-06
	0.000000000000000e+00
	9.525269248721161e-06
	2.682207100563312e-05
	2.682207100563312e-05
	1.680000000000000e-04
	1.050000000000000e-04
	5.265454583035507e-05
	5.262530926760302e-05
	4.455927649131014e-08
	-1.532271373926382e-08
	-2.530875923445284e-07
	5.265454583035507e-05
	5.262530926760302e-05
	4.455927649131014e-08
	-1.532271373926382e-08
	-2.530875923445284e-07
	-7.871441117831144e-05
	-7.877500301026851e-05
	1.046717280660959e-07
	-4.407989610902573e-08
	-7.272110221731540e-07
	-7.871441117831144e-05
	-7.877500301026851e-05
	1.046717280660959e-07
	-4.407989610902573e-08
	-7.272110221731540e-07
	9.325094256191769e-06
	9.642890341813756e-06
	-3.279929668050058e-07
	1.019688118301999e-08
	1.694185866337692e-07
	9.622249024835587e-05
	9.671390382183352e-05
	-5.461339086967290e-07
	5.472033521907602e-08
	9.031155433547025e-07
	2.510493858351118e-05
	2.603426768576379e-05
	-9.858573489003630e-07
	5.652824664775836e-08
	9.333580450183520e-07
	-9.349058892816935e-06
	-9.398820993797791e-06
	9.188961366882975e-08
	-4.212751268797375e-08
	-6.948868072243093e-07
	8.208355904395516e-05
	8.243675182191250e-05
	-3.892110637547948e-07
	3.601828579746604e-08
	5.942385778092972e-07
	-7.930979156414384e-05
	-7.930979156414384e-05
	-2.682207100563312e-05
	-2.682207100563312e-05
	9.380416871712287e-06
	1.733512814638234e-05
	-9.525269248721161e-06
	-1.762163246594726e-05
	3.418101292518542e-01
	3.418101292518542e-01
	-8.174417928845549e-01
	-8.174417928845549e-01
	1.073492871148574e-01
	9.991112669083365e-01
	2.367483786983685e-01
	-1.177572257387113e-01
	6.868813705671926e-01
11	1.100000000000000e-11
	0.000000000000000e+00
	0.000000000000000e+00
	-3.085231564382780e-07
	0.000000000000000e+00
	9.133697943669898e-06
	2.661303621213008e-05
	2.661303621213008e-05
	1.680000000000000e-04
	1.050000000000000e-04
	5.252258314293238e-05
	5.224933814235113e-05
	2.743315181319717e-07
	-1.086517550724455e-09
	-1.794617556864558e-08
	5.252258314293238e-05
	5.224933814235113e-05
	2.743315181319717e-07
	-1.086517550724455e-09
	-1.794617556864558e-08
	-7.925438023502104e-05
	-7.976512995548560e-05
	5.266457984265927e-07
	-1.589607796203071e-08
	-2.622466049992693e-07
	-7.925438023502104e-05
	-7.976512995548560e-05
	5.266457984265927e-07
	-1.589607796203071e-08
	-2.622466049992693e-07
	9.406050332131261e-06
	9.593191912922934e-06
	-1.748884009157311e-07
	-1.225317987594149e-08
	-2.035834662669406e-07
	9.689933827501139e-05
	9.748107051657267e-05
	-5.859146927856110e-07
	4.182451224328707e-09
	6.902802577673867e-08
	2.625095153333497e-05
	2.694815719084445e-05
	-6.793923976163137e-07
	-1.781325989316471e-08
	-2.941210883983316e-07
	-9.631511002334373e-06
	-1.044962770838551e-05
	8.195547387216718e-07
	-1.438032670540654e-09
	-2.372012652438192e-08
	8.258874467078045e-05
	8.306500117400671e-05
	-4.737497525802109e-07
	-2.506750646061008e-09
	-4.135699147966192e-08
	-7.932560066495716e-05
	-7.932560066495716e-05
	-2.661303621213008e-05
	-2.661303621213008e-05
	9.348798670085670e-06
	1.742917964481706e-05
	-9.133697943669898e-06
	-1.753062984111766e-05
	3.392695118530324e-01
	3.392695118530324e-01
	-8.309408749771570e-01
	-8.309408749771570e-01
	1.067939018234785e-01
	1.011561821114241e+00
	2.452266404412238e-01
	-1.309946610804736e-01
	6.931475330886119e-01
12	1.200000000000000e-11
	0.000000000000000e+00
	0.000000000000000e+00
	-2.067642384737186e-06
	0.000000000000000e+00
	9.143906374736509e-06
	2.669734047200386e-05
	2.669734047200386e-05
	1.680000000000000e-04
	1.050000000000000e-04
	5.233129844370418e-05
	5.240100896305081e-05
	-7.741492129745001e-08
	7.704401950816691e-09
	1.272547783223395e-07
	5.233129844370418e-05
	5.240100896305081e-05
	-7.741492129745001e-08
	7.704401950816691e-09
	1.272547783223395e-07
	-7.956173040003389e-05
	-7.976430413250698e-05
	1.866272630478685e-07
	1.594646942522202e-08
	2.630779415197891e-07
	-7.956173040003389e-05
	-7.976430413250698e-05
	1.866272630478685e-07
	1.594646942522202e-08
	2.630779415197891e-07
	9.782870238659887e-06
	9.315546600776974e-06
	4.665559452441905e-07
	7.676926387218805e-10
	1.275501788115274e-08
	9.738948978738574e-05
	9.730816181929048e-05
	9.888778934591075e-08
	-1.755982125065791e-08
	-2.898108618397303e-07
	2.686271923744703e-05
	2.615441574022267e-05
	7.241199896174710e-07
	-1.581649239311305e-08
	-2.611517479229835e-07
	-1.003235266591122e-05
	-9.855376142725614e-06
	-2.030605524042394e-07
	2.608402921863044e-08
	4.302520283485433e-07
	8.284024729021078e-05
	8.270345683155697e-05
	1.535900530298094e-07
	-1.679959437598964e-08
	-2.771638585438587e-07
	-7.920842034745012e-05
	-7.920842034745012e-05
	-2.669734047200386e-05
	-2.669734047200386e-05
	9.583159305099770e-06
	1.753660167910030e-05
	-9.143906374736509e-06
	-1.768509023611202e-05
	3.402941492631056e-01
	3.402941492631056e-01
	-8.309295331272092e-01
	-8.309295331272092e-01
	1.036917889359731e-01
	1.008734184584596e+00
	2.378620029679430e-01
	-1.235059499199952e-01
	6.895375314859938e-01
13	1.300000000000000e-11
	0.000000000000000e+00
	0.000000000000000e+00
	-2.159831914773832e-07
	0.000000000000000e+00
	9.621538562732693e-06
	2.681164069795492e-05
	2.681164069795492e-05
	1.680000000000000e-04
	1.050000000000000e-04
	5.254106868770595e-05
	5.260655729070641e-05
	-6.675676878679968e-08
	1.268165786341257e-09
	2.094648709232067e-08
	5.254106868770595e-05
	5.260655729070641e-05
	-6.675676878679968e-08
	1.268165786341257e-09
	2.094648709232067e-08
	-7.942964565132306e-05
	-7.924760311584039e-05
	-1.975034603839622e-07
	1.546092490128926e-08
	2.550676383946096e-07
	-7.942964565132306e-05
	-7.924760311584039e-05
	-1.975034603839622e-07
	1.546092490128926e-08
	2.550676383946096e-07
	9.687370626698616e-06
	9.759397262490804e-06
	-8.962174795284465e-08
	1.759511216065697e-08
	2.923383121189111e-07
	9.706217582550695e-05
	9.696820859777840e-05
	1.025349618712937e-07
	-8.567734142746997e-09
	-1.414036270916004e-07
	2.581503096450975e-05
	2.598376165148867e-05
	-1.773246986469909e-07
	8.594011668069091e-09
	1.418987922862093e-07
	-9.691386061920367e-06
	-9.268667965492717e-06
	-4.209447462424122e-07
	-1.773350185237924e-09
	-2.925113707608947e-08
	8.253663420821230e-05
	8.235497715149959e-05
	1.834119201434747e-07
	-1.754863430753738e-09
	-2.895217043932750e-08
	-7.929477691127914e-05
	-7.929477691127914e-05
	-2.681164069795492e-05
	-2.681164069795492e-05
	9.410446177441694e-06
	1.744329017410095e-05
	-9.621538562732693e-06
	-1.760743103151793e-05
	3.416833588672775e-01
	3.416833588672775e-01
	-8.238605192279768e-01
	-8.238605192279768e-01
	1.086513951104769e-01
	1.003211482445438e+00
	2.362803394532994e-01
	-1.161191253279791e-01
	6.860681216965412e-01
14	1.400000000000000e-11
	0.000000000000000e+00
	0.000000000000000e+00
	7.874989565186015e-07
	0.000000000000000e+00
	9.300108492636386e-06
	2.680372308499093e-05
	2.680372308499093e-05
	1.680000000000000e-04
	1.050000000000000e-04
	5.258645307348527e-05
	5.259232216096646e-05
	-3.979389077181871e-09
	-1.889698404015062e-09
	-3.121243583008082e-08
	5.258645307348527e-05
	5.259232216096646e-05
	-3.979389077181871e-09
	-1.889698404015062e-09
	-3.121243583008082e-08
	-7.931047055312702e-05
	-7.906220285166412e-05
	-2.440178534262360e-07
	-4.249848036666008e-09
	-7.011215106270736e-08
	-7.931047055312702e-05
	-7.906220285166412e-05
	-2.440178534262360e-07
	-4.249848036666008e-09
	-7.011215106270736e-08
	9.678066409938746e-06
	1.008192144581479e-05
	-3.996094687209040e-07
	-4.245567155135379e-09
	-7.053901815385883e-08
	9.690167533572576e-05
	9.684036321073055e-05
	6.251170439396776e-08
	-1.199579398762112e-09
	-1.979810240878208e-08
	2.597231542079279e-05
	2.608667987074947e-05
	-1.101258479379191e-07
	-4.238602018757243e-09
	-6.998506991539569e-08
	-9.526924013627040e-06
	-9.654776257576433e-06
	1.420751305494938e-07
	-1.422288660010035e-08
	-2.346043150532017e-07
	8.244790348463284e-05
	8.244228322481934e-05
	-7.781692082054800e-10
	6.398429021713637e-09
	1.055628628041021e-07
	-7.936499647655326e-05
	-7.936499647655326e-05
	-2.680372308499093e-05
	-2.680372308499093e-05
	9.270007046893470e-06
	1.737182480086406e-05
	-9.300108492636386e-06
	-1.760391284206444e-05
	3.415871278766545e-01
	3.415871278766545e-01
	-8.213371880226724e-01
	-8.213371880226724e-01
	1.122569709775384e-01
	1.001146920239854e+00
	2.372341381266218e-01
	-1.209795981721701e-01
	6.869363999338813e-01
15	1.500000000000000e-11
	0.000000000000000e+00
	0.000000000000000e+00
	-6.139785263215903e-07
	0.000000000000000e+00
	9.240588438539943e-06
	2.677779962308555e-05
	2.677779962308555e-05
	1.680000000000000e-04
	1.050000000000000e-04
	5.258861955572505e-05
	5.254571078691797e-05
	4.305406216264309e-08
	-1.452933555569723e-10
	-2.399832442692251e-09
	5.258861955572505e-05
	5.254571078691797e-05
	4.305406216264309e-08
	-1.452933555569723e-10
	-2.399832442692251e-09
	-7.888665162462991e-05
	-7.917118726749209e-05
	2.868723439983156e-07
	-2.336701136126767e-09
	-3.854988263840248e-08
	-7.888665162462991e-05
	-7.917118726749209e-05
	2.868723439983156e-07
	-2.336701136126767e-09
	-3.854988263840248e-08
	1.030668186938533e-05
	9.894330743505267e-06
	4.158707432781748e-07
	-3.519617398114415e-09
	-5.847754763222288e-08
	9.689442778083709e-05
	9.686249159300371e-05
	2.904826844469422e-08
	2.887919388678165e-09
	4.766280903486579e-08
	2.615306317294256e-05
	2.596716192076822e-05
	1.867204522163853e-07
	-8.192000420400194e-10
	-1.352610411714839e-08
	-9.085342138739027e-06
	-9.624263592108442e-06
	5.234341061866504e-07
	1.548734718276324e-08
	2.554613968290843e-07
	8.220949900274764e-05
	8.246877831094271e-05
	-2.542907326687095e-07
	-4.988575526362921e-09
	-8.230275151763945e-08
	-7.931592019079823e-05
	-7.931592019079823e-05
	-2.677779962308555e-05
	-2.677779962308555e-05
	9.368159618403522e-06
	1.740649933417924e-05
	-9.240588438539943e-06
	-1.766032365328327e-05
	3.412720530642236e-01
	3.412720530642236e-01
	-8.228196544497313e-01
	-8.228196544497313e-01
	1.101596738773829e-01
	1.001503792466648e+00
	2.361265213272978e-01
	-1.205953905358956e-01
	6.872000217313712e-01
16	1.600000000000000e-11
	0.000000000000000e+00
	0.000000000000000e+00
	-1.303272041443244e-06
	0.000000000000000e+00
	9.830216373803793e-06
	2.680577056409835e-05
	2.680577056409835e-05
	1.680000000000000e-04
	1.050000000000000e-04
	5.261098357922192e-05
	5.259600338415364e-05
	1.263918284322297e-08
	2.341012225062042e-09
	3.866685482558163e-08
	5.261098357922192e-05
	5.259600338415364e-05
	1.263918284322297e-08
	2.341012225062042e-09
	3.866685482558163e-08
	-7.927266066935810e-05
	-7.913873243291305e-05
	-1.382274673041863e-07
	4.299230859146828e-09
	7.092684746592142e-08
	-7.927266066935810e-05
	-7.913873243291305e-05
	-1.382274673041863e-07
	4.299230859146828e-09
	7.092684746592142e-08
	9.814809450307129e-06
	9.983304594591349e-06
	-1.756975446806398e-07
	7.202400396418343e-09
	1.196660502000971e-07
	9.678055278859542e-05
	9.689097756206461e-05
	-1.097116490795255e-07
	-7.131243896625193e-10
	-1.176954998669381e-08
	2.531301008181197e-05
	2.571339718434951e-05
	-3.904718576117802e-07
	-9.915244925763035e-09
	-1.637141459110745e-07
	-9.367827399012496e-06
	-8.867999503043583e-06
	-5.156622031104353e-07
	1.583430714152276e-08
	2.611844476952209e-07
	8.229396299516772e-05
	8.217571276758788e-05
	1.288393129165677e-07
	-1.058908533672636e-08
	-1.747013460379684e-07
	-7.934218364637006e-05
	-7.934218364637006e-05
	-2.680577056409835e-05
	-2.680577056409835e-05
	9.315632707259877e-06
	1.747304205203975e-05
	-9.830216373803793e-06
	-1.763720220421962e-05
	3.416120130211651e-01
	3.416120130211651e-01
	-8.223779384084239e-01
	-8.223779384084239e-01
	1.111543559805420e-01
	1.001963488937001e+00
	2.337757667040766e-01